Biphenyl singlet optimization                                           
Freq      RB3LYP TD-FC                                                6-31G               
Number of atoms                            I               22
Info1-9                                    I   N=           9
          33          32           0           0           0         100
           6         218        -501
Full Title                                 C   N=           3
Biphenyl singlet optimization       
Route                                      C   N=           7
#P B3LYP/6-31G Int=Ultrafine SCF=Tight Freq=(HPModes,SaveNM)
 TD=(Root=1,NStates=4)  
Charge                                     I                0
Multiplicity                               I                1
Number of electrons                        I               82
Number of alpha electrons                  I               41
Number of beta electrons                   I               41
Number of basis functions                  I              128
Number of independent functions            I              128
Number of point charges in /Mol/           I                0
Number of translation vectors              I                0
Atomic numbers                             I   N=          22
           1           6           6           6           1           6
           1           6           1           6           1           6
           6           6           1           6           1           6
           6           1           1           1
Nuclear charges                            R   N=          22
  1.00000000E+00  6.00000000E+00  6.00000000E+00  6.00000000E+00  1.00000000E+00
  6.00000000E+00  1.00000000E+00  6.00000000E+00  1.00000000E+00  6.00000000E+00
  1.00000000E+00  6.00000000E+00  6.00000000E+00  6.00000000E+00  1.00000000E+00
  6.00000000E+00  1.00000000E+00  6.00000000E+00  6.00000000E+00  1.00000000E+00
  1.00000000E+00  1.00000000E+00
Current cartesian coordinates              R   N=          66
  1.83320625E+00 -4.13971910E+00  1.92475521E-04  2.80726366E+00 -2.34007809E+00
  8.09816784E-05  1.34559823E+00 -1.32401745E-05  4.31871558E-05  2.80725220E+00
  2.34007813E+00  6.39741432E-05  1.83318715E+00  4.13971344E+00  1.54680998E-04
  5.41658605E+00  2.30987281E+00 -5.94572369E-06  6.44883757E+00  4.08360381E+00
 -2.16627142E-06  6.77167092E+00  1.14633661E-05 -6.45272338E-05  8.82165528E+00
  9.62543698E-06 -1.38226553E-04  5.41659372E+00 -2.30987074E+00  1.29515376E-05
  6.44885666E+00 -4.08359412E+00  3.18487990E-05 -5.41659203E+00 -2.30987101E+00
 -1.16149021E-05 -6.77167313E+00  9.23143958E-06  6.77535955E-05 -5.41658838E+00
  2.30987065E+00  7.28235924E-06 -6.44883809E+00  4.08360348E+00  3.50290698E-06
 -2.80725453E+00  2.34007799E+00 -6.83066861E-05 -1.83318769E+00  4.13971335E+00
 -1.60903266E-04 -1.34559855E+00 -1.51978993E-05 -4.75196986E-05 -2.80726386E+00
 -2.34007823E+00 -8.53142213E-05 -1.83320259E+00 -4.13971730E+00 -1.98697789E-04
 -6.44885489E+00 -4.08359256E+00 -3.05121634E-05 -8.82165182E+00  9.17964267E-06
  1.45232367E-04
Number of symbols in /Mol/                 I                0
Force Field                                I                0
Atom Types                                 C   N=          22
                                                            
                                                            
                                                            
                                                            
                        
Int Atom Types                             I   N=          22
           0           0           0           0           0           0
           0           0           0           0           0           0
           0           0           0           0           0           0
           0           0           0           0
MM charges                                 R   N=          22
  0.00000000E+00  0.00000000E+00  0.00000000E+00  0.00000000E+00  0.00000000E+00
  0.00000000E+00  0.00000000E+00  0.00000000E+00  0.00000000E+00  0.00000000E+00
  0.00000000E+00  0.00000000E+00  0.00000000E+00  0.00000000E+00  0.00000000E+00
  0.00000000E+00  0.00000000E+00  0.00000000E+00  0.00000000E+00  0.00000000E+00
  0.00000000E+00  0.00000000E+00
Integer atomic weights                     I   N=          22
           1          12          12          12           1          12
           1          12           1          12           1          12
          12          12           1          12           1          12
          12           1           1           1
Real atomic weights                        R   N=          22
  1.00782504E+00  1.20000000E+01  1.20000000E+01  1.20000000E+01  1.00782504E+00
  1.20000000E+01  1.00782504E+00  1.20000000E+01  1.00782504E+00  1.20000000E+01
  1.00782504E+00  1.20000000E+01  1.20000000E+01  1.20000000E+01  1.00782504E+00
  1.20000000E+01  1.00782504E+00  1.20000000E+01  1.20000000E+01  1.00782504E+00
  1.00782504E+00  1.00782504E+00
Atom fragment info                         I   N=          22
           0           0           0           0           0           0
           0           0           0           0           0           0
           0           0           0           0           0           0
           0           0           0           0
Atom residue num                           I   N=          22
           0           0           0           0           0           0
           0           0           0           0           0           0
           0           0           0           0           0           0
           0           0           0           0
Nuclear spins                              I   N=          22
           1           0           0           0           1           0
           1           0           1           0           1           0
           0           0           1           0           1           0
           0           1           1           1
Nuclear ZEff                               R   N=          22
 -1.00000000E+00 -3.60000000E+00 -3.60000000E+00 -3.60000000E+00 -1.00000000E+00
 -3.60000000E+00 -1.00000000E+00 -3.60000000E+00 -1.00000000E+00 -3.60000000E+00
 -1.00000000E+00 -3.60000000E+00 -3.60000000E+00 -3.60000000E+00 -1.00000000E+00
 -3.60000000E+00 -1.00000000E+00 -3.60000000E+00 -3.60000000E+00 -1.00000000E+00
 -1.00000000E+00 -1.00000000E+00
Nuclear ZNuc                               R   N=          22
  1.00000000E+00  6.00000000E+00  6.00000000E+00  6.00000000E+00  1.00000000E+00
  6.00000000E+00  1.00000000E+00  6.00000000E+00  1.00000000E+00  6.00000000E+00
  1.00000000E+00  6.00000000E+00  6.00000000E+00  6.00000000E+00  1.00000000E+00
  6.00000000E+00  1.00000000E+00  6.00000000E+00  6.00000000E+00  1.00000000E+00
  1.00000000E+00  1.00000000E+00
Nuclear QMom                               R   N=          22
  0.00000000E+00  0.00000000E+00  0.00000000E+00  0.00000000E+00  0.00000000E+00
  0.00000000E+00  0.00000000E+00  0.00000000E+00  0.00000000E+00  0.00000000E+00
  0.00000000E+00  0.00000000E+00  0.00000000E+00  0.00000000E+00  0.00000000E+00
  0.00000000E+00  0.00000000E+00  0.00000000E+00  0.00000000E+00  0.00000000E+00
  0.00000000E+00  0.00000000E+00
Nuclear GFac                               R   N=          22
  2.79284600E+00  0.00000000E+00  0.00000000E+00  0.00000000E+00  2.79284600E+00
  0.00000000E+00  2.79284600E+00  0.00000000E+00  2.79284600E+00  0.00000000E+00
  2.79284600E+00  0.00000000E+00  0.00000000E+00  0.00000000E+00  2.79284600E+00
  0.00000000E+00  2.79284600E+00  0.00000000E+00  0.00000000E+00  2.79284600E+00
  2.79284600E+00  2.79284600E+00
MicOpt                                     I   N=          22
          -1          -1          -1          -1          -1          -1
          -1          -1          -1          -1          -1          -1
          -1          -1          -1          -1          -1          -1
          -1          -1          -1          -1
Number of residues                         I                0
Number of secondary structures             I                0
SymInf integers                            I   N=          26
           1           1           1           1           1           0
           0           0           0           0           0           0
           0           0           0           0           0           0
           0           0           0           0           0           0
           0           0
RotTr to input orientation                 R   N=          12
  1.00000000E+00  2.52670494E-08  0.00000000E+00 -2.52670494E-08  1.00000000E+00
  0.00000000E+00  0.00000000E+00  0.00000000E+00  1.00000000E+00 -1.61318084E-07
 -4.60908813E-08 -2.76545288E-07
Number of contracted shells                I               56
Number of primitive shells                 I              160
Pure/Cartesian d shells                    I                1
Pure/Cartesian f shells                    I                0
Highest angular momentum                   I                1
Largest degree of contraction              I                6
Shell types                                I   N=          56
           0           0           0          -1          -1           0
          -1          -1           0          -1          -1           0
           0           0          -1          -1           0           0
           0          -1          -1           0           0           0
          -1          -1           0           0           0          -1
          -1           0          -1          -1           0          -1
          -1           0           0           0          -1          -1
           0           0           0          -1          -1           0
          -1          -1           0           0           0           0
           0           0
Number of primitives per shell             I   N=          56
           3           1           6           3           1           6
           3           1           6           3           1           3
           1           6           3           1           3           1
           6           3           1           3           1           6
           3           1           3           1           6           3
           1           6           3           1           6           3
           1           3           1           6           3           1
           3           1           6           3           1           6
           3           1           3           1           3           1
           3           1
Shell to atom map                          I   N=          56
           1           1           2           2           2           3
           3           3           4           4           4           5
           5           6           6           6           7           7
           8           8           8           9           9          10
          10          10          11          11          12          12
          12          13          13          13          14          14
          14          15          15          16          16          16
          17          17          18          18          18          19
          19          19          20          20          21          21
          22          22
Primitive exponents                        R   N=         160
  1.87311370E+01  2.82539436E+00  6.40121692E-01  1.61277759E-01  3.04752488E+03
  4.57369518E+02  1.03948685E+02  2.92101553E+01  9.28666296E+00  3.16392696E+00
  7.86827235E+00  1.88128854E+00  5.44249258E-01  1.68714478E-01  3.04752488E+03
  4.57369518E+02  1.03948685E+02  2.92101553E+01  9.28666296E+00  3.16392696E+00
  7.86827235E+00  1.88128854E+00  5.44249258E-01  1.68714478E-01  3.04752488E+03
  4.57369518E+02  1.03948685E+02  2.92101553E+01  9.28666296E+00  3.16392696E+00
  7.86827235E+00  1.88128854E+00  5.44249258E-01  1.68714478E-01  1.87311370E+01
  2.82539436E+00  6.40121692E-01  1.61277759E-01  3.04752488E+03  4.57369518E+02
  1.03948685E+02  2.92101553E+01  9.28666296E+00  3.16392696E+00  7.86827235E+00
  1.88128854E+00  5.44249258E-01  1.68714478E-01  1.87311370E+01  2.82539436E+00
  6.40121692E-01  1.61277759E-01  3.04752488E+03  4.57369518E+02  1.03948685E+02
  2.92101553E+01  9.28666296E+00  3.16392696E+00  7.86827235E+00  1.88128854E+00
  5.44249258E-01  1.68714478E-01  1.87311370E+01  2.82539436E+00  6.40121692E-01
  1.61277759E-01  3.04752488E+03  4.57369518E+02  1.03948685E+02  2.92101553E+01
  9.28666296E+00  3.16392696E+00  7.86827235E+00  1.88128854E+00  5.44249258E-01
  1.68714478E-01  1.87311370E+01  2.82539436E+00  6.40121692E-01  1.61277759E-01
  3.04752488E+03  4.57369518E+02  1.03948685E+02  2.92101553E+01  9.28666296E+00
  3.16392696E+00  7.86827235E+00  1.88128854E+00  5.44249258E-01  1.68714478E-01
  3.04752488E+03  4.57369518E+02  1.03948685E+02  2.92101553E+01  9.28666296E+00
  3.16392696E+00  7.86827235E+00  1.88128854E+00  5.44249258E-01  1.68714478E-01
  3.04752488E+03  4.57369518E+02  1.03948685E+02  2.92101553E+01  9.28666296E+00
  3.16392696E+00  7.86827235E+00  1.88128854E+00  5.44249258E-01  1.68714478E-01
  1.87311370E+01  2.82539436E+00  6.40121692E-01  1.61277759E-01  3.04752488E+03
  4.57369518E+02  1.03948685E+02  2.92101553E+01  9.28666296E+00  3.16392696E+00
  7.86827235E+00  1.88128854E+00  5.44249258E-01  1.68714478E-01  1.87311370E+01
  2.82539436E+00  6.40121692E-01  1.61277759E-01  3.04752488E+03  4.57369518E+02
  1.03948685E+02  2.92101553E+01  9.28666296E+00  3.16392696E+00  7.86827235E+00
  1.88128854E+00  5.44249258E-01  1.68714478E-01  3.04752488E+03  4.57369518E+02
  1.03948685E+02  2.92101553E+01  9.28666296E+00  3.16392696E+00  7.86827235E+00
  1.88128854E+00  5.44249258E-01  1.68714478E-01  1.87311370E+01  2.82539436E+00
  6.40121692E-01  1.61277759E-01  1.87311370E+01  2.82539436E+00  6.40121692E-01
  1.61277759E-01  1.87311370E+01  2.82539436E+00  6.40121692E-01  1.61277759E-01
Contraction coefficients                   R   N=         160
  3.34946043E-02  2.34726953E-01  8.13757326E-01  1.00000000E+00  1.83473713E-03
  1.40373228E-02  6.88426223E-02  2.32184443E-01  4.67941348E-01  3.62311985E-01
 -1.19332420E-01 -1.60854152E-01  1.14345644E+00  1.00000000E+00  1.83473713E-03
  1.40373228E-02  6.88426223E-02  2.32184443E-01  4.67941348E-01  3.62311985E-01
 -1.19332420E-01 -1.60854152E-01  1.14345644E+00  1.00000000E+00  1.83473713E-03
  1.40373228E-02  6.88426223E-02  2.32184443E-01  4.67941348E-01  3.62311985E-01
 -1.19332420E-01 -1.60854152E-01  1.14345644E+00  1.00000000E+00  3.34946043E-02
  2.34726953E-01  8.13757326E-01  1.00000000E+00  1.83473713E-03  1.40373228E-02
  6.88426223E-02  2.32184443E-01  4.67941348E-01  3.62311985E-01 -1.19332420E-01
 -1.60854152E-01  1.14345644E+00  1.00000000E+00  3.34946043E-02  2.34726953E-01
  8.13757326E-01  1.00000000E+00  1.83473713E-03  1.40373228E-02  6.88426223E-02
  2.32184443E-01  4.67941348E-01  3.62311985E-01 -1.19332420E-01 -1.60854152E-01
  1.14345644E+00  1.00000000E+00  3.34946043E-02  2.34726953E-01  8.13757326E-01
  1.00000000E+00  1.83473713E-03  1.40373228E-02  6.88426223E-02  2.32184443E-01
  4.67941348E-01  3.62311985E-01 -1.19332420E-01 -1.60854152E-01  1.14345644E+00
  1.00000000E+00  3.34946043E-02  2.34726953E-01  8.13757326E-01  1.00000000E+00
  1.83473713E-03  1.40373228E-02  6.88426223E-02  2.32184443E-01  4.67941348E-01
  3.62311985E-01 -1.19332420E-01 -1.60854152E-01  1.14345644E+00  1.00000000E+00
  1.83473713E-03  1.40373228E-02  6.88426223E-02  2.32184443E-01  4.67941348E-01
  3.62311985E-01 -1.19332420E-01 -1.60854152E-01  1.14345644E+00  1.00000000E+00
  1.83473713E-03  1.40373228E-02  6.88426223E-02  2.32184443E-01  4.67941348E-01
  3.62311985E-01 -1.19332420E-01 -1.60854152E-01  1.14345644E+00  1.00000000E+00
  3.34946043E-02  2.34726953E-01  8.13757326E-01  1.00000000E+00  1.83473713E-03
  1.40373228E-02  6.88426223E-02  2.32184443E-01  4.67941348E-01  3.62311985E-01
 -1.19332420E-01 -1.60854152E-01  1.14345644E+00  1.00000000E+00  3.34946043E-02
  2.34726953E-01  8.13757326E-01  1.00000000E+00  1.83473713E-03  1.40373228E-02
  6.88426223E-02  2.32184443E-01  4.67941348E-01  3.62311985E-01 -1.19332420E-01
 -1.60854152E-01  1.14345644E+00  1.00000000E+00  1.83473713E-03  1.40373228E-02
  6.88426223E-02  2.32184443E-01  4.67941348E-01  3.62311985E-01 -1.19332420E-01
 -1.60854152E-01  1.14345644E+00  1.00000000E+00  3.34946043E-02  2.34726953E-01
  8.13757326E-01  1.00000000E+00  3.34946043E-02  2.34726953E-01  8.13757326E-01
  1.00000000E+00  3.34946043E-02  2.34726953E-01  8.13757326E-01  1.00000000E+00
P(S=P) Contraction coefficients            R   N=         160
  0.00000000E+00  0.00000000E+00  0.00000000E+00  0.00000000E+00  0.00000000E+00
  0.00000000E+00  0.00000000E+00  0.00000000E+00  0.00000000E+00  0.00000000E+00
  6.89990666E-02  3.16423961E-01  7.44308291E-01  1.00000000E+00  0.00000000E+00
  0.00000000E+00  0.00000000E+00  0.00000000E+00  0.00000000E+00  0.00000000E+00
  6.89990666E-02  3.16423961E-01  7.44308291E-01  1.00000000E+00  0.00000000E+00
  0.00000000E+00  0.00000000E+00  0.00000000E+00  0.00000000E+00  0.00000000E+00
  6.89990666E-02  3.16423961E-01  7.44308291E-01  1.00000000E+00  0.00000000E+00
  0.00000000E+00  0.00000000E+00  0.00000000E+00  0.00000000E+00  0.00000000E+00
  0.00000000E+00  0.00000000E+00  0.00000000E+00  0.00000000E+00  6.89990666E-02
  3.16423961E-01  7.44308291E-01  1.00000000E+00  0.00000000E+00  0.00000000E+00
  0.00000000E+00  0.00000000E+00  0.00000000E+00  0.00000000E+00  0.00000000E+00
  0.00000000E+00  0.00000000E+00  0.00000000E+00  6.89990666E-02  3.16423961E-01
  7.44308291E-01  1.00000000E+00  0.00000000E+00  0.00000000E+00  0.00000000E+00
  0.00000000E+00  0.00000000E+00  0.00000000E+00  0.00000000E+00  0.00000000E+00
  0.00000000E+00  0.00000000E+00  6.89990666E-02  3.16423961E-01  7.44308291E-01
  1.00000000E+00  0.00000000E+00  0.00000000E+00  0.00000000E+00  0.00000000E+00
  0.00000000E+00  0.00000000E+00  0.00000000E+00  0.00000000E+00  0.00000000E+00
  0.00000000E+00  6.89990666E-02  3.16423961E-01  7.44308291E-01  1.00000000E+00
  0.00000000E+00  0.00000000E+00  0.00000000E+00  0.00000000E+00  0.00000000E+00
  0.00000000E+00  6.89990666E-02  3.16423961E-01  7.44308291E-01  1.00000000E+00
  0.00000000E+00  0.00000000E+00  0.00000000E+00  0.00000000E+00  0.00000000E+00
  0.00000000E+00  6.89990666E-02  3.16423961E-01  7.44308291E-01  1.00000000E+00
  0.00000000E+00  0.00000000E+00  0.00000000E+00  0.00000000E+00  0.00000000E+00
  0.00000000E+00  0.00000000E+00  0.00000000E+00  0.00000000E+00  0.00000000E+00
  6.89990666E-02  3.16423961E-01  7.44308291E-01  1.00000000E+00  0.00000000E+00
  0.00000000E+00  0.00000000E+00  0.00000000E+00  0.00000000E+00  0.00000000E+00
  0.00000000E+00  0.00000000E+00  0.00000000E+00  0.00000000E+00  6.89990666E-02
  3.16423961E-01  7.44308291E-01  1.00000000E+00  0.00000000E+00  0.00000000E+00
  0.00000000E+00  0.00000000E+00  0.00000000E+00  0.00000000E+00  6.89990666E-02
  3.16423961E-01  7.44308291E-01  1.00000000E+00  0.00000000E+00  0.00000000E+00
  0.00000000E+00  0.00000000E+00  0.00000000E+00  0.00000000E+00  0.00000000E+00
  0.00000000E+00  0.00000000E+00  0.00000000E+00  0.00000000E+00  0.00000000E+00
Coordinates of each shell                  R   N=         168
  1.83320631E+00 -4.13971910E+00  1.92752066E-04  1.83320631E+00 -4.13971910E+00
  1.92752066E-04  2.80726376E+00 -2.34007811E+00  8.12582237E-05  2.80726376E+00
 -2.34007811E+00  8.12582237E-05  2.80726376E+00 -2.34007811E+00  8.12582237E-05
  1.34559839E+00 -1.32280829E-05  4.34637011E-05  1.34559839E+00 -1.32280829E-05
  4.34637011E-05  1.34559839E+00 -1.32280829E-05  4.34637011E-05  2.80725242E+00
  2.34007811E+00  6.42506885E-05  2.80725242E+00  2.34007811E+00  6.42506885E-05
  2.80725242E+00  2.34007811E+00  6.42506885E-05  1.83318742E+00  4.13971344E+00
  1.54957543E-04  1.83318742E+00  4.13971344E+00  1.54957543E-04  5.41658627E+00
  2.30987272E+00 -5.66917840E-06  5.41658627E+00  2.30987272E+00 -5.66917840E-06
  5.41658627E+00  2.30987272E+00 -5.66917840E-06  6.44883783E+00  4.08360369E+00
 -1.88972613E-06  6.44883783E+00  4.08360369E+00 -1.88972613E-06  6.77167108E+00
  1.13383568E-05 -6.42506885E-05  6.77167108E+00  1.13383568E-05 -6.42506885E-05
  6.77167108E+00  1.13383568E-05 -6.42506885E-05  8.82165544E+00  9.44863066E-06
 -1.37950008E-04  8.82165544E+00  9.44863066E-06 -1.37950008E-04  5.41659382E+00
 -2.30987083E+00  1.32280829E-05  5.41659382E+00 -2.30987083E+00  1.32280829E-05
  5.41659382E+00 -2.30987083E+00  1.32280829E-05  6.44885672E+00 -4.08359424E+00
  3.21253443E-05  6.44885672E+00 -4.08359424E+00  3.21253443E-05 -5.41659193E+00
 -2.30987083E+00 -1.13383568E-05 -5.41659193E+00 -2.30987083E+00 -1.13383568E-05
 -5.41659193E+00 -2.30987083E+00 -1.13383568E-05 -6.77167297E+00  9.44863066E-06
  6.80301408E-05 -6.77167297E+00  9.44863066E-06  6.80301408E-05 -6.77167297E+00
  9.44863066E-06  6.80301408E-05 -5.41658816E+00  2.30987083E+00  7.55890453E-06
 -5.41658816E+00  2.30987083E+00  7.55890453E-06 -5.41658816E+00  2.30987083E+00
  7.55890453E-06 -6.44883783E+00  4.08360369E+00  3.77945227E-06 -6.44883783E+00
  4.08360369E+00  3.77945227E-06 -2.80725431E+00  2.34007811E+00 -6.80301408E-05
 -2.80725431E+00  2.34007811E+00 -6.80301408E-05 -2.80725431E+00  2.34007811E+00
 -6.80301408E-05 -1.83318742E+00  4.13971344E+00 -1.60626721E-04 -1.83318742E+00
  4.13971344E+00 -1.60626721E-04 -1.34559839E+00 -1.51178091E-05 -4.72431533E-05
 -1.34559839E+00 -1.51178091E-05 -4.72431533E-05 -1.34559839E+00 -1.51178091E-05
 -4.72431533E-05 -2.80726376E+00 -2.34007811E+00 -8.50376760E-05 -2.80726376E+00
 -2.34007811E+00 -8.50376760E-05 -2.80726376E+00 -2.34007811E+00 -8.50376760E-05
 -1.83320253E+00 -4.13971721E+00 -1.98421244E-04 -1.83320253E+00 -4.13971721E+00
 -1.98421244E-04 -6.44885483E+00 -4.08359235E+00 -3.02356181E-05 -6.44885483E+00
 -4.08359235E+00 -3.02356181E-05 -8.82165166E+00  9.44863066E-06  1.45508912E-04
 -8.82165166E+00  9.44863066E-06  1.45508912E-04
Constraint Structure                       R   N=          66
  1.83320637E+00 -4.13971910E+00  1.93028611E-04  2.80726386E+00 -2.34007813E+00
  8.15347690E-05  1.34559855E+00 -1.32159914E-05  4.37402463E-05  2.80725264E+00
  2.34007808E+00  6.45272338E-05  1.83318768E+00  4.13971343E+00  1.55234088E-04
  5.41658649E+00  2.30987263E+00 -5.39263311E-06  6.44883809E+00  4.08360357E+00
 -1.61318085E-06  6.77167124E+00  1.12133475E-05 -6.39741432E-05  8.82165560E+00
  9.27182434E-06 -1.37673462E-04  5.41659393E+00 -2.30987092E+00  1.35046282E-05
  6.44885678E+00 -4.08359436E+00  3.24018895E-05 -5.41659183E+00 -2.30987065E+00
 -1.10618115E-05 -6.77167281E+00  9.66582174E-06  6.83066861E-05 -5.41658794E+00
  2.30987102E+00  7.83544982E-06 -6.44883756E+00  4.08360390E+00  4.05599755E-06
 -2.80725409E+00  2.34007822E+00 -6.77535955E-05 -1.83318715E+00  4.13971353E+00
 -1.60350176E-04 -1.34559823E+00 -1.50377189E-05 -4.69666080E-05 -2.80726366E+00
 -2.34007799E+00 -8.47611307E-05 -1.83320248E+00 -4.13971712E+00 -1.98144699E-04
 -6.44885478E+00 -4.08359214E+00 -2.99590728E-05 -8.82165150E+00  9.71761865E-06
  1.45785458E-04
Num ILSW                                   I              100
ILSW                                       I   N=         100
           0           1           0           0           2           0
           0           0           0           0         402          -1
           5           0           0           0           2           0
           0           0           0           0           1           0
           1           0           0           0           0           0
           0           0      100000           0          -1           0
           0           0           0           0           0           0
           0           0           0           1           0           0
           0           0           1           0           0           0
           0           0           4          42           0           0
           0           0           5           0           0           0
           0           0           0          22           0           0
           0           0           0           0           0           0
           0           0           0           0           0           0
           0           0           0           0           0           0
           0           0           0           0           0           0
           0           0           0           0
Num RLSW                                   I               42
RLSW                                       R   N=          42
  8.00000000E-01  7.20000000E-01  1.00000000E+00  8.10000000E-01  2.00000000E-01
  0.00000000E+00  0.00000000E+00  1.00000000E+00  0.00000000E+00  0.00000000E+00
  0.00000000E+00  0.00000000E+00  1.00000000E+00  0.00000000E+00  0.00000000E+00
  0.00000000E+00  0.00000000E+00  1.00000000E+00  0.00000000E+00  0.00000000E+00
  0.00000000E+00  0.00000000E+00  1.00000000E+00  0.00000000E+00  0.00000000E+00
  0.00000000E+00  0.00000000E+00  1.00000000E+00  0.00000000E+00  0.00000000E+00
  0.00000000E+00  0.00000000E+00  1.00000000E+00  0.00000000E+00  0.00000000E+00
  0.00000000E+00  0.00000000E+00  0.00000000E+00  1.00000000E+00  1.00000000E+00
  0.00000000E+00  0.00000000E+00
MxBond                                     I                3
NBond                                      I   N=          22
           1           3           3           3           1           3
           1           3           1           3           1           3
           3           3           1           3           1           3
           3           1           1           1
IBond                                      I   N=          66
           2           0           0           1           3          10
           2           4          18           3           5           6
           4           0           0           4           7           8
           6           0           0           6           9          10
           8           0           0           2           8          11
          10           0           0          13          19          21
          12          14          22          13          15          16
          14           0           0          14          17          18
          16           0           0           3          16          19
          12          18          20          19           0           0
          12           0           0          13           0           0
RBond                                      R   N=          66
  1.00000000E+00  0.00000000E+00  0.00000000E+00  1.00000000E+00  1.00000000E+00
  1.50000000E+00  1.00000000E+00  1.00000000E+00  1.50000000E+00  1.00000000E+00
  1.00000000E+00  1.50000000E+00  1.00000000E+00  0.00000000E+00  0.00000000E+00
  1.50000000E+00  1.00000000E+00  1.50000000E+00  1.00000000E+00  0.00000000E+00
  0.00000000E+00  1.50000000E+00  1.00000000E+00  1.50000000E+00  1.00000000E+00
  0.00000000E+00  0.00000000E+00  1.50000000E+00  1.50000000E+00  1.00000000E+00
  1.00000000E+00  0.00000000E+00  0.00000000E+00  1.50000000E+00  1.50000000E+00
  1.00000000E+00  1.50000000E+00  1.50000000E+00  1.00000000E+00  1.50000000E+00
  1.00000000E+00  1.50000000E+00  1.00000000E+00  0.00000000E+00  0.00000000E+00
  1.50000000E+00  1.00000000E+00  1.00000000E+00  1.00000000E+00  0.00000000E+00
  0.00000000E+00  1.50000000E+00  1.00000000E+00  1.00000000E+00  1.50000000E+00
  1.00000000E+00  1.00000000E+00  1.00000000E+00  0.00000000E+00  0.00000000E+00
  1.00000000E+00  0.00000000E+00  0.00000000E+00  1.00000000E+00  0.00000000E+00
  0.00000000E+00
Virial Ratio                               R      2.006321059827207E+00
SCF Energy                                 R     -4.631909134408326E+02
CIS Energy                                 R     -4.630351185492953E+02
Total Energy                               R     -4.630351185492953E+02
Post-SCF wavefunction norm                 R      1.000000000000000E+00
RMS Force                                  R      1.209114115383499E-06
RMS Density                                R      5.052472615590022E-09
NImag                                      I                0
Job Status                                 I                1
Nuclear derivative order                   I                2
External E-field                           R   N=          35
  0.00000000E+00  0.00000000E+00  0.00000000E+00  0.00000000E+00  0.00000000E+00
  0.00000000E+00  0.00000000E+00  0.00000000E+00  0.00000000E+00  0.00000000E+00
  0.00000000E+00  0.00000000E+00  0.00000000E+00  0.00000000E+00  0.00000000E+00
  0.00000000E+00  0.00000000E+00  0.00000000E+00  0.00000000E+00  0.00000000E+00
  0.00000000E+00  0.00000000E+00  0.00000000E+00  0.00000000E+00  0.00000000E+00
  0.00000000E+00  0.00000000E+00  0.00000000E+00  0.00000000E+00  0.00000000E+00
  0.00000000E+00  0.00000000E+00  0.00000000E+00  0.00000000E+00  0.00000000E+00
IOpCl                                      I                0
IROHF                                      I                0
Alpha Orbital Energies                     R   N=         128
 -1.02044726E+01 -1.02041439E+01 -1.01895106E+01 -1.01895070E+01 -1.01895003E+01
 -1.01894980E+01 -1.01893095E+01 -1.01893083E+01 -1.01879531E+01 -1.01879518E+01
 -1.01879118E+01 -1.01879082E+01 -8.61941835E-01 -8.39253079E-01 -7.75643740E-01
 -7.54577615E-01 -7.45360900E-01 -7.08978358E-01 -6.35384967E-01 -6.17631082E-01
 -5.80400266E-01 -5.77416110E-01 -5.33037309E-01 -4.95507466E-01 -4.84300041E-01
 -4.64191586E-01 -4.37064638E-01 -4.34871726E-01 -4.20820335E-01 -4.20034167E-01
 -4.16467204E-01 -3.80173970E-01 -3.64653374E-01 -3.54134232E-01 -3.50600853E-01
 -3.48920277E-01 -3.19350155E-01 -2.80568550E-01 -2.57023977E-01 -2.51758247E-01