Gen - H2CO_S2_frq.chk                                                   
Freq      RB3LYP TD-FC                                                6-31+G(d)           
Number of atoms                            I                4
Info1-9                                    I   N=           9
          15          15           0           0           0         100
           6         218        -501
Full Title                                 C   N=           2
Gen - H2CO_S2_frq.chk   
Route                                      C   N=           7
#T B3LYP/6-31+G(d) TD=(Root=2,NStates=3) Int=UltraFine SCF=T
ight Freq=SaveNM NoSymm 
Charge                                     I                0
Multiplicity                               I                1
Number of electrons                        I               16
Number of alpha electrons                  I                8
Number of beta electrons                   I                8
Number of basis functions                  I               42
Number of independent functions            I               42
Number of point charges in /Mol/           I                0
Number of translation vectors              I                0
Atomic numbers                             I   N=           4
           6           8           1           1
Nuclear charges                            R   N=           4
  6.00000000E+00  8.00000000E+00  1.00000000E+00  1.00000000E+00
Current cartesian coordinates              R   N=          12
  0.00000000E+00  0.00000000E+00  9.96648651E-01  0.00000000E+00  0.00000000E+00
  3.25704515E+00  0.00000000E+00 -1.82923804E+00 -7.17481433E-02  0.00000000E+00
  1.82923804E+00 -7.17481433E-02
Number of symbols in /Mol/                 I                0
Force Field                                I                0
Atom Types                                 C   N=           4
                                                
Int Atom Types                             I   N=           4
           0           0           0           0
MM charges                                 R   N=           4
  0.00000000E+00  0.00000000E+00  0.00000000E+00  0.00000000E+00
Integer atomic weights                     I   N=           4
          12          16           1           1
Real atomic weights                        R   N=           4
  1.20000000E+01  1.59949146E+01  1.00782504E+00  1.00782504E+00
Atom fragment info                         I   N=           4
           0           0           0           0
Atom residue num                           I   N=           4
           0           0           0           0
Nuclear spins                              I   N=           4
           0           0           1           1
Nuclear ZEff                               R   N=           4
 -3.60000000E+00 -5.60000000E+00 -1.00000000E+00 -1.00000000E+00
Nuclear ZNuc                               R   N=           4
  6.00000000E+00  8.00000000E+00  1.00000000E+00  1.00000000E+00
Nuclear QMom                               R   N=           4
  0.00000000E+00  0.00000000E+00  0.00000000E+00  0.00000000E+00
Nuclear GFac                               R   N=           4
  0.00000000E+00  0.00000000E+00  2.79284600E+00  2.79284600E+00
MicOpt                                     I   N=           4
          -1          -1          -1          -1
Number of residues                         I                0
Number of secondary structures             I                0
Number of contracted shells                I               14
Number of primitive shells                 I               32
Pure/Cartesian d shells                    I                1
Pure/Cartesian f shells                    I                0
Highest angular momentum                   I                2
Largest degree of contraction              I                6
Shell types                                I   N=          14
           0          -1          -1          -1           2           0
          -1          -1          -1           2           0           0
           0           0
Number of primitives per shell             I   N=          14
           6           3           1           1           1           6
           3           1           1           1           3           1
           3           1
Shell to atom map                          I   N=          14
           1           1           1           1           1           2
           2           2           2           2           3           3
           4           4
Primitive exponents                        R   N=          32
  3.04752488E+03  4.57369518E+02  1.03948685E+02  2.92101553E+01  9.28666296E+00
  3.16392696E+00  7.86827235E+00  1.88128854E+00  5.44249258E-01  1.68714478E-01
  4.38000000E-02  8.00000000E-01  5.48467166E+03  8.25234946E+02  1.88046958E+02
  5.29645000E+01  1.68975704E+01  5.79963534E+00  1.55396162E+01  3.59993359E+00
  1.01376175E+00  2.70005823E-01  8.45000000E-02  8.00000000E-01  1.87311370E+01
  2.82539436E+00  6.40121692E-01  1.61277759E-01  1.87311370E+01  2.82539436E+00
  6.40121692E-01  1.61277759E-01
Contraction coefficients                   R   N=          32
  1.83473713E-03  1.40373228E-02  6.88426223E-02  2.32184443E-01  4.67941348E-01
  3.62311985E-01 -1.19332420E-01 -1.60854152E-01  1.14345644E+00  1.00000000E+00
  1.00000000E+00  1.00000000E+00  1.83107443E-03  1.39501722E-02  6.84450781E-02
  2.32714336E-01  4.70192898E-01  3.58520853E-01 -1.10777550E-01 -1.48026263E-01
  1.13076702E+00  1.00000000E+00  1.00000000E+00  1.00000000E+00  3.34946043E-02
  2.34726953E-01  8.13757326E-01  1.00000000E+00  3.34946043E-02  2.34726953E-01
  8.13757326E-01  1.00000000E+00
P(S=P) Contraction coefficients            R   N=          32
  0.00000000E+00  0.00000000E+00  0.00000000E+00  0.00000000E+00  0.00000000E+00
  0.00000000E+00  6.89990666E-02  3.16423961E-01  7.44308291E-01  1.00000000E+00
  1.00000000E+00  0.00000000E+00  0.00000000E+00  0.00000000E+00  0.00000000E+00
  0.00000000E+00  0.00000000E+00  0.00000000E+00  7.08742682E-02  3.39752839E-01
  7.27158577E-01  1.00000000E+00  1.00000000E+00  0.00000000E+00  0.00000000E+00
  0.00000000E+00  0.00000000E+00  0.00000000E+00  0.00000000E+00  0.00000000E+00
  0.00000000E+00  0.00000000E+00
Coordinates of each shell                  R   N=          42
  0.00000000E+00  0.00000000E+00  9.96648651E-01  0.00000000E+00  0.00000000E+00
  9.96648651E-01  0.00000000E+00  0.00000000E+00  9.96648651E-01  0.00000000E+00
  0.00000000E+00  9.96648651E-01  0.00000000E+00  0.00000000E+00  9.96648651E-01
  0.00000000E+00  0.00000000E+00  3.25704515E+00  0.00000000E+00  0.00000000E+00
  3.25704515E+00  0.00000000E+00  0.00000000E+00  3.25704515E+00  0.00000000E+00
  0.00000000E+00  3.25704515E+00  0.00000000E+00  0.00000000E+00  3.25704515E+00
  0.00000000E+00 -1.82923804E+00 -7.17481433E-02  0.00000000E+00 -1.82923804E+00
 -7.17481433E-02  0.00000000E+00  1.82923804E+00 -7.17481433E-02  0.00000000E+00
  1.82923804E+00 -7.17481433E-02
Constraint Structure                       R   N=          12
  0.00000000E+00  0.00000000E+00  9.96648651E-01  0.00000000E+00  0.00000000E+00
  3.25704515E+00  0.00000000E+00 -1.82923804E+00 -7.17481433E-02  0.00000000E+00
  1.82923804E+00 -7.17481433E-02
Num ILSW                                   I              100
ILSW                                       I   N=         100
           0           1           0           0           2           0
           0           0           0           0         402          -1
           5           0           0           0           2           0
           0           0           2           0           1           0
           1           1           0           0           0           0
           0           0      100000           0          -1           0
           0           0           0           0           0           0
           0           0           0           1           0           0
           0           0           1           0           0           0
           0           0           4          41           0           0
           0           0           5           0           0           0
           0           0           0           0           0           0
           0           0           0           0           0           0
           0           0           0           0           0           0
           0           0           0           0           0           0
           0           0           0           0           0           0
           0           0           0           0
Num RLSW                                   I               41
RLSW                                       R   N=          41
  8.00000000E-01  7.20000000E-01  1.00000000E+00  8.10000000E-01  2.00000000E-01
  0.00000000E+00  0.00000000E+00  1.00000000E+00  0.00000000E+00  0.00000000E+00
  0.00000000E+00  0.00000000E+00  1.00000000E+00  0.00000000E+00  0.00000000E+00
  0.00000000E+00  0.00000000E+00  1.00000000E+00  0.00000000E+00  0.00000000E+00
  0.00000000E+00  0.00000000E+00  1.00000000E+00  0.00000000E+00  0.00000000E+00
  0.00000000E+00  0.00000000E+00  1.00000000E+00  0.00000000E+00  0.00000000E+00
  0.00000000E+00  0.00000000E+00  1.00000000E+00  0.00000000E+00  0.00000000E+00
  0.00000000E+00  0.00000000E+00  0.00000000E+00  1.00000000E+00  1.00000000E+00
  0.00000000E+00
MxBond                                     I                3
NBond                                      I   N=           4
           3           1           1           1
IBond                                      I   N=          12
           2           3           4           1           0           0
           1           0           0           1           0           0
RBond                                      R   N=          12
  2.00000000E+00  1.00000000E+00  1.00000000E+00  2.00000000E+00  0.00000000E+00
  0.00000000E+00  1.00000000E+00  0.00000000E+00  0.00000000E+00  1.00000000E+00
  0.00000000E+00  0.00000000E+00
Virial Ratio                               R      2.009209409436546E+00
SCF Energy                                 R     -1.145080286838280E+02
CIS Energy                                 R     -1.142557736051956E+02
Total Energy                               R     -1.142557736051956E+02
Post-SCF wavefunction norm                 R      1.000000000000000E+00
RMS Force                                  R      1.743691255716560E-06
RMS Density                                R      4.405104305223645E-09
Job Status                                 I                1
Nuclear derivative order                   I                2
External E-field                           R   N=          35
  0.00000000E+00  0.00000000E+00  0.00000000E+00  0.00000000E+00  0.00000000E+00
  0.00000000E+00  0.00000000E+00  0.00000000E+00  0.00000000E+00  0.00000000E+00
  0.00000000E+00  0.00000000E+00  0.00000000E+00  0.00000000E+00  0.00000000E+00
  0.00000000E+00  0.00000000E+00  0.00000000E+00  0.00000000E+00  0.00000000E+00
  0.00000000E+00  0.00000000E+00  0.00000000E+00  0.00000000E+00  0.00000000E+00
  0.00000000E+00  0.00000000E+00  0.00000000E+00  0.00000000E+00  0.00000000E+00
  0.00000000E+00  0.00000000E+00  0.00000000E+00  0.00000000E+00  0.00000000E+00
IOpCl                                      I                0
IROHF                                      I                0
Alpha Orbital Energies                     R   N=          42
 -1.91843238E+01 -1.02995300E+01 -1.08091740E+00 -6.40023257E-01 -5.10210159E-01
 -4.61703030E-01 -4.15025651E-01 -2.80377394E-01 -5.90281495E-02  1.02227024E-02
  4.02784269E-02  4.41055455E-02  6.71188347E-02  1.49205917E-01  1.94399295E-01
  2.16552140E-01  2.24510156E-01  2.47285031E-01  2.69498399E-01  3.66570687E-01
  6.22266702E-01  6.89395594E-01  7.52448302E-01  8.93735407E-01  8.96188274E-01
  1.03843799E+00  1.18247313E+00  1.18254350E+00  1.21615806E+00  1.49064484E+00
  1.50119997E+00  1.50977035E+00  1.67295974E+00  1.85210079E+00  1.92388557E+00
  2.15457017E+00  2.36383652E+00  2.55303977E+00  2.64095355E+00  2.98635828E+00
  4.02331688E+00  4.18299671E+00
Alpha MO coefficients                      R   N=        1764
  1.00483373E-06  4.37273687E-04  8.35364304E-17 -6.25112044E-16  1.63573984E-04
 -1.63620909E-04  8.99065413E-16  2.52654402E-15 -7.40955067E-04  2.07117478E-03
 -1.07577295E-15  1.47941657E-15  1.15977377E-03 -1.59789752E-04 -1.67383110E-04
 -6.11288908E-04  1.29326086E-17  1.56462517E-15 -4.80914329E-16  9.92619472E-01
  2.54177017E-02  1.46110054E-16  5.12646605E-17 -1.34750834E-03  1.46994839E-02
 -1.29903039E-15  2.95325459E-16  2.54930658E-04 -5.49812796E-03  9.68220080E-16
 -1.47409083E-15  8.97334457E-05 -8.52608099E-03 -8.49440444E-03 -8.30936186E-03
 -6.42105428E-18  1.69796875E-15 -3.95937636E-16 -1.22365571E-05  1.25753224E-05
 -1.22365571E-05  1.25753224E-05  9.92921332E-01  4.95647956E-02  1.43752448E-16
 -9.14214263E-17  1.17891762E-03 -1.38604339E-02 -5.25395232E-16  1.23087893E-15
 -1.20075250E-03 -2.01670192E-03  1.75013650E-15  4.56219320E-16 -6.56668991E-04
 -9.52833616E-03 -9.26489588E-03 -8.60954053E-03 -1.17032100E-18 -2.67084060E-16
  5.13537315E-16 -1.78945253E-04  3.38304823E-04 -1.15649546E-16 -3.62423346E-17
  1.64137962E-05 -1.22257426E-03  8.00890439E-16 -1.25837039E-16  7.19480117E-04
  7.04117893E-03 -1.37431523E-15 -6.55865611E-16 -3.12679065E-03  3.60796927E-04
  2.61703559E-04 -8.30718915E-05  2.56057096E-18 -2.37918816E-16  3.56587194E-16
 -1.52565696E-04  1.15946424E-03 -1.52565696E-04  1.15946424E-03 -1.17619164E-01
  2.27377150E-01 -5.71297505E-15 -3.67356536E-15  1.93643344E-01  1.00321332E-01
  3.83124142E-14  2.72198770E-14 -1.04425579E-02  2.28943712E-02 -1.57743676E-13
  5.83595468E-14  1.49826393E-02 -2.05422621E-02 -1.75043636E-02  2.72124960E-02
 -1.19552540E-16  4.22645511E-15 -7.74612053E-16 -1.96911883E-01  4.32917038E-01
  7.62459553E-15 -2.51392239E-15 -1.69798073E-01  3.78202395E-01 -5.05448862E-14
  5.72888108E-15 -4.06266726E-02 -4.14491913E-02  1.23428437E-13 -4.41637317E-14
  6.12462468E-04 -5.11577526E-03 -1.04156278E-02  9.20774900E-03 -7.08099985E-16
  2.40613005E-15  1.24649345E-15  2.71815654E-02 -8.13158549E-03  2.71815654E-02
 -8.13158549E-03 -1.64995797E-01  3.43426708E-01 -5.93497709E-16 -7.26660266E-15
 -2.13433584E-01  3.64280983E-01  3.15188879E-14 -4.08523514E-14 -6.75343258E-02
  1.16070219E-02 -1.27105004E-13 -6.07808654E-14 -9.41234213E-03 -1.32196389E-02
  1.77813439E-02 -1.47231138E-02 -2.48445026E-16  2.87467592E-15  1.42413214E-15
  8.97062503E-02 -2.05196566E-01  5.90681567E-15 -3.36231589E-15 -1.14372468E-01
 -2.70180712E-01 -3.44334026E-14 -5.56083516E-15 -4.98217802E-02 -2.76992115E-02
  9.50259471E-14  4.40201111E-14  1.05781776E-02 -1.41323470E-03  7.57161238E-04
  1.32985267E-02  2.34242498E-16  1.76570767E-15 -5.04692194E-16  1.77218364E-01
  6.54274228E-02  1.77218364E-01  6.54274228E-02 -6.16084415E-15  6.62150495E-15
 -3.73914110E-15  4.44330206E-01  3.80616412E-15  5.53631592E-14 -1.95111002E-14
  1.60922713E-01  7.52749526E-15  1.67675750E-13  9.14331801E-14  1.62540607E-02
  1.65835791E-13 -1.74176402E-15 -3.41006164E-15  5.16079215E-16  9.87230217E-16
 -1.80277890E-15 -5.46048871E-03 -1.86840638E-15 -2.64257543E-14 -1.32260797E-14
  2.94943452E-01 -1.37820489E-14  1.03194935E-13  1.68709120E-14  1.48093740E-01
  1.21251130E-14 -3.29712150E-13 -6.88806451E-14  6.55909958E-03  9.55935041E-15
 -1.15276477E-14 -1.22633382E-14 -1.28600667E-14 -3.49646312E-16 -2.67604915E-16
 -2.33529516E-02 -1.93703170E-01 -1.17008924E-01  1.93703170E-01  1.17008924E-01
  2.46759710E-02 -7.51739572E-02 -1.08273767E-14  1.13520899E-14 -3.70856988E-01
 -6.21725240E-02  3.10735239E-14 -1.79625219E-14 -1.31915802E-01  1.24083244E-02
 -1.77980646E-13 -6.04826134E-14 -7.74966981E-03  8.85488398E-03  2.24175121E-02
 -1.32783379E-02 -1.13018585E-16  1.96898866E-15  1.22230236E-15 -8.15136834E-02
  1.73176755E-01 -1.58112915E-15  8.23109232E-15  5.24088385E-01  3.81483192E-01
 -5.07174931E-14 -3.32529795E-15  2.05614999E-01  9.32964801E-02  1.29431314E-13
  4.29768726E-14  2.63848096E-02  4.44721131E-03  2.56145413E-03 -2.54018761E-02
 -4.76997218E-16  2.05323262E-15 -1.00545153E-15  8.51569003E-02  6.41209083E-02
  8.51569003E-02  6.41209083E-02  2.02977416E-14  1.08619656E-13  3.62790451E-01
 -1.58446081E-15 -2.00524339E-14 -1.31783495E-12  1.75928968E-01  9.53709045E-14
 -5.19996155E-13 -2.13234524E-12  2.45652119E-02  2.22148699E-13 -7.17985955E-13
  3.10892357E-14  2.76990568E-14 -2.62028474E-14 -1.01375433E-15  2.94250326E-02
 -1.71792407E-15  2.44756914E-14  1.10790446E-13  5.13339219E-01  2.87414299E-16
  2.09666142E-14 -4.31129835E-13  2.99938565E-01  2.10734156E-14 -3.01885942E-13
  3.13708192E-12  3.35760544E-02 -1.55238864E-13 -5.97011461E-13  6.20316161E-14
  6.15633111E-14  1.00763656E-13 -4.11570216E-16 -3.43656674E-02  1.60911999E-15
 -2.01938548E-14  2.90486988E-13 -7.76449558E-16  3.93982634E-14  5.74203429E-15
  1.23948829E-14 -6.64258935E-15 -1.50085514E-01  1.24886795E-15 -1.66750330E-13
  3.78973063E-14 -2.28270734E-02 -3.60570564E-14 -5.13211136E-13 -2.92843244E-13
 -3.22186848E-02 -5.17956952E-13  4.47427752E-15  4.27526819E-15 -2.37666904E-16
 -2.52872454E-16  4.44304147E-15  5.52509717E-02  9.92708117E-15  5.06630266E-14
  2.03882030E-14  5.82560585E-01 -1.77009862E-15 -2.69674895E-13 -4.98923251E-14
  3.82202495E-01 -5.63748812E-14  9.53291734E-13  2.05645374E-13  1.11780318E-01
 -2.48458819E-14  2.70418346E-14  2.63748677E-14  3.28103539E-14 -2.74836262E-16
  1.22568560E-15 -1.85275227E-02  1.82701548E-01  2.64487427E-01 -1.82701548E-01
 -2.64487427E-01 -4.30742516E-13  5.39825391E-12  4.57373429E-01 -8.83576819E-13
 -3.02325905E-12 -3.49310201E-11  5.23707516E-01  1.98295791E-12 -2.19344068E-11
 -1.04003196E-10  3.89643981E-01  1.06860422E-11 -2.87772352E-11  4.89241489E-13
  7.55439045E-13 -7.00035444E-13 -1.24674465E-15 -3.38684522E-02  9.95893425E-15
  2.33601946E-13  3.65961091E-12 -4.25978639E-01  9.71541413E-14  1.17959575E-12
 -8.09280405E-12 -3.61405099E-01  8.25407540E-13 -9.23963169E-12  1.18165425E-10
 -2.97952066E-01 -5.71721302E-12 -2.34711325E-11  1.37772892E-12  1.38390177E-12
  2.55947450E-12  3.17906764E-16 -2.59320235E-04  5.02013502E-14 -1.60164740E-13
  8.08315166E-12 -2.05594567E-13  3.70628023E-13  7.16132518E-02 -1.79550006E-01
  3.91653486E-11  2.13029290E-12  1.64629191E-01 -3.74753849E-01  5.46638554E-11
 -5.72301083E-15  3.74048234E-01  1.67577438E+00 -1.31758621E-10 -1.56915974E-11
 -2.33998306E-01  5.04657735E-03 -8.61533472E-03  1.06029769E-02  1.57325055E-16
 -4.59557749E-13 -5.93957640E-14  5.36932882E-03 -2.59663528E-02 -1.94428159E-11
 -1.49472954E-13 -6.26446915E-02 -4.94332672E-02 -3.51355871E-11 -1.08818972E-12
  5.30309008E-03 -9.02117305E-01  5.11872598E-11  6.16272836E-12  3.20293704E-01
 -2.16184269E-03 -8.79574367E-04 -1.22823143E-02 -7.53060106E-17 -3.87896923E-13
 -8.80818135E-14  2.07002340E-02  1.36867454E-01  2.07002340E-02  1.36867454E-01
  2.14443853E-02 -8.42861825E-03 -5.67012651E-11  1.38484056E-10 -1.69655538E-02
 -5.04879845E-01 -7.63413017E-11  1.15879390E-10 -3.38587095E-01 -1.37176240E+00
  2.21333905E-10 -7.41993483E-10 -1.45953987E+00 -5.13880844E-03 -9.32309252E-03
  1.56013820E-02  2.48912525E-17 -1.21901652E-14 -4.23296700E-12 -4.25205209E-02
  1.23686132E-01  1.85664685E-11 -6.80922940E-12 -7.70803361E-03  3.13547593E-01
  3.87125229E-11 -4.65417660E-11 -1.50735021E-01  1.57470052E+00 -6.52030952E-11
  1.94450655E-10 -9.02425515E-02 -1.68736540E-03 -1.99975656E-03  1.21983997E-02
 -2.53153079E-17  1.24767095E-12 -5.38342732E-12  9.65765433E-03 -1.39907946E-02
  9.65765435E-03 -1.39907945E-02  1.32991411E-11 -8.21964129E-12 -2.55476435E-11
 -2.53566474E-01 -7.31974959E-12 -2.88413540E-10 -3.41580660E-11 -2.38233430E-01
 -1.84385734E-10 -7.25884849E-10  1.00395306E-10  1.29385214E+00 -7.96450558E-10
 -3.16564961E-12 -5.47479103E-12  9.41900925E-12 -7.79192955E-16 -3.32928229E-14
  7.78664959E-03 -2.52195140E-11  6.82617707E-11  7.81557967E-12  1.17640456E-02
 -5.23573687E-12  1.99292233E-10  1.65306309E-11  7.98568699E-02 -8.16900277E-11
  8.14057021E-10 -2.79427874E-11 -3.08772948E-01 -4.82446460E-11 -2.63457279E-12
 -2.72807119E-12  4.71742761E-12 -4.38890161E-16  6.08243501E-13  9.80819131E-03
  1.47504176E-02  2.77582379E-02 -1.47504176E-02 -2.77582379E-02  1.00395271E-11
 -1.60339743E-11 -3.08686941E-01  2.28743709E-11  2.93490080E-11 -1.40792460E-10
 -3.92687252E-01  3.48759204E-11  7.85314896E-11  1.89089660E-10  1.20699210E+00
 -8.22552088E-11  1.66485752E-10  3.89013405E-12  4.24252278E-12 -4.25631279E-12
  1.82800597E-16 -2.02416691E-03 -6.97548711E-13  1.22367948E-11 -1.97407517E-11
  5.23663727E-02 -6.50286194E-13 -6.59905932E-12 -1.25062609E-10  1.20422130E-01
 -4.39339531E-12 -1.52028335E-12 -2.20398252E-11 -1.78783099E-01  2.86019292E-12
 -2.15118271E-11  5.42904116E-12  6.20568975E-12  4.68455668E-12 -1.36133614E-16
  1.11473673E-02 -8.77097048E-13  3.67393699E-12  9.31510510E-11  5.79398669E-12
  6.12774021E-11 -1.09966155E-01  1.20627589E-01 -1.13175991E-11 -4.23213935E-12
 -1.76433554E-01  1.74380567E+00 -1.37918728E-11 -1.28246696E-11 -7.35596925E-01
  9.83444447E-01  1.18794839E-11 -4.43373704E-12 -4.75477945E-01  1.30995782E-02
 -4.31384429E-02 -1.62672008E-02  9.96296045E-17 -2.03481690E-13  6.41396687E-14
  1.68119300E-02 -4.88965898E-02 -7.76680703E-12 -2.97684957E-13  1.04788465E-02
 -2.26473429E-02 -1.68590234E-11 -8.41995799E-13 -6.61685209E-02  2.82953044E-02
  5.92915288E-11  1.37246237E-11  3.81057460E-01  9.99144760E-03 -1.07644566E-02
  1.43652772E-02  3.05862174E-16  1.34022929E-12  2.09871465E-13 -1.82024756E-01
 -1.53927256E+00 -1.82024756E-01 -1.53927256E+00 -1.77620077E-02 -1.94531021E-02
  8.22802018E-14 -2.53678005E-12  5.07070471E-02  5.37358206E-01  2.38656636E-13
 -8.87005727E-12  1.36995101E-01 -1.43478837E-02  9.34960977E-13 -9.52447533E-12
 -2.30024840E-01 -3.79036487E-02 -1.19489333E-02  1.37034467E-05 -4.72926137E-16
  4.30468821E-15 -3.25459588E-15  6.80279201E-03 -2.36261764E-02  3.27458498E-13
 -1.04713063E-12 -1.46808333E-01  5.05071797E-02  6.68356610E-13 -2.35203838E-12
 -2.98585847E-01 -8.14599854E-01 -2.46110559E-12  1.67173964E-11  1.92690750E+00
 -1.65961294E-02 -5.86476425E-03  3.51711569E-02  5.02209530E-17 -3.34580439E-14
  2.21013964E-13  4.83081625E-02  6.32815929E-01  4.83081625E-02  6.32815929E-01
  4.56231754E-13  6.10649680E-13  9.97988778E-13  1.74374065E-01  2.12664298E-12
 -1.85773509E-11 -1.09300244E-11  4.31781925E-01  9.94510022E-12 -4.44424920E-11
 -6.49978013E-11 -4.86922041E-01 -1.74921804E-11  7.42564871E-13  9.14614142E-13
 -9.01912827E-13 -8.33501743E-17 -2.48342466E-13  5.27249873E-04  2.14949836E-12
 -7.10941357E-13 -1.75477605E-11 -2.88605783E-01  1.89370618E-12 -3.59540057E-11
 -3.39486071E-11 -5.55642418E-01  2.22041263E-12  8.31429645E-11  1.30035560E-10
  1.51482628E+00 -2.01135649E-11  1.85999514E-12  1.90699297E-12  1.60017794E-12
  1.70611060E-16  1.43381335E-12  1.56153600E-02  1.50087418E-02  7.09696591E-01
 -1.50087418E-02 -7.09696591E-01 -8.93433053E-13 -6.23587908E-12  3.84329474E-02
 -4.62410532E-11 -1.54024669E-11  1.68681494E-10 -1.52417748E-01 -1.41587687E-10
  4.37386739E-11  4.13926922E-10 -1.00282888E+00 -5.26396162E-11  2.61086237E-10
 -7.78533013E-12 -3.68129361E-12  1.06473183E-11 -1.91073276E-16 -3.53688486E-03
 -4.76216045E-13 -2.05565503E-11  1.29081275E-11 -2.53441245E-01  2.63369713E-11
 -1.63778521E-12  2.87695813E-10 -4.79820539E-01  4.74790131E-11  4.34588980E-11
 -9.26825844E-10  1.86812927E+00 -2.13100784E-11  1.03553236E-10 -1.61297699E-11
 -1.51699788E-11 -1.94308621E-11  4.86430644E-16  1.90289313E-02  3.23470059E-13
  4.72024466E-12 -1.26649205E-10  1.83624462E-11  2.24854161E-10 -7.49020134E-13
 -3.88776181E-12  7.09315669E-12  4.74688040E-01 -1.48491598E-11  7.65917043E-11
 -1.08640005E-11  1.54374555E+00 -5.71260559E-11  3.00739455E-10 -8.18699735E-11
  1.38716124E+00  1.61330946E-10 -3.94229625E-12 -4.59108305E-12  6.33067236E-12
  5.62021356E-16 -2.56920313E-13  1.03179697E-02 -1.41075771E-11  7.07027578E-12
 -1.82250334E-11 -8.45565669E-02 -8.53979081E-12  2.30837714E-10 -3.21453506E-11
 -1.20761726E-01 -5.11868724E-12 -5.48253693E-10  1.31790352E-10 -1.24216900E+00
  6.38835011E-11 -1.10490342E-11 -1.12941036E-11 -1.11480098E-11  2.71287063E-16
  1.05007344E-12 -2.19400896E-02  9.78905383E-02  1.78239488E+00 -9.78905383E-02
 -1.78239488E+00 -2.55385651E-03  3.37412149E-02  2.58349789E-11  4.97834279E-11
  1.36219683E-01 -4.79879804E-01 -2.87250206E-11  1.60981107E-10  4.83077320E-01
 -2.65513590E+00 -2.11942182E-10  1.76388387E-10 -1.60003148E+00  3.36412079E-02
  3.47871412E-02 -5.70600610E-02 -4.17463575E-16 -6.53740127E-13  1.59794634E-12
  1.21882607E-01 -7.53371716E-02 -4.41097696E-11 -4.37592148E-12  7.23374010E-02
 -1.98897599E+00 -7.17712814E-11 -4.35748623E-12  4.48367554E-02  4.79932790E+00
  3.11494249E-10 -1.66834327E-10 -3.94604633E-01  9.02098285E-02  9.12847070E-02
  9.43665428E-02  3.18266016E-18  1.86001591E-12 -2.94679398E-12 -1.29303102E-02
  7.12944989E-02 -1.29303102E-02  7.12944985E-02  1.07752299E-01 -2.01842680E-01
  1.60353018E-11  9.87256388E-13 -1.14472598E-01 -3.47186254E+00 -1.61869163E-11
  2.48391936E-12 -2.82114705E+00 -1.92142329E+00 -5.84929331E-11  4.15535698E-12
 -1.68650760E-01  6.13299941E-03 -3.71301245E-02  4.83104219E-03  4.23354448E-16
 -2.31959989E-13  7.53724809E-14 -3.93291551E-02 -2.54375367E-02 -1.21513895E-11
  2.01758790E-14 -3.15502117E-01  1.48122359E+00 -1.15783684E-11  5.07489770E-14
 -1.25388421E+00  4.57965330E+00  7.33240358E-11 -3.69073953E-12 -1.44024066E+00
 -2.55785215E-02 -3.51053781E-02  6.92260064E-03  5.34085957E-18 -2.51101956E-13
 -8.99191299E-14 -4.38846176E-02 -3.12703190E-01 -4.38846176E-02 -3.12703190E-01
  1.31700492E-12 -8.54210639E-12 -1.05032483E+00  2.05463137E-12 -2.29661818E-12
 -2.28194563E-11  1.54853494E+00 -1.02795487E-12 -1.60547588E-11 -5.05676450E-11
 -4.94300540E-01  3.65875770E-12 -1.94122499E-11 -8.90938627E-13 -3.09573593E-13
  6.28023437E-13 -4.43324225E-16 -1.89254103E-02  2.76824442E-13  1.51384581E-13
 -3.11503588E-12  8.16787700E-02  7.84552542E-14 -5.24549187E-12  9.10833308E-13
 -2.18358606E-01  1.15115066E-13 -8.20854447E-12  8.27416723E-11 -1.64849805E-01
 -2.66595875E-12 -1.56518772E-11 -2.97832503E-13 -3.08510640E-13 -1.88852936E-12
  1.87162445E-16  6.80812419E-02 -2.53326357E-13  3.35837054E-12 -2.77514062E-12
  9.60878769E-13 -2.65343842E-12  6.19941038E-02  1.80551974E-01  3.24199657E-12
  2.32845425E-12 -1.04710000E+00 -9.83643075E-01 -4.98463134E-12 -3.33231541E-12
  1.27969388E+00  1.62726341E-01  3.51159363E-12  2.09181116E-12 -4.08258673E-01
 -7.74671735E-02  4.21823549E-02  1.84977045E-01  4.27853023E-16  1.05782358E-13
  2.53692294E-13 -3.86266924E-02  2.03475275E-01  3.15437935E-13  5.92107471E-14
 -3.56652572E-01 -3.40955018E-01  5.07834186E-13  2.97545471E-13 -2.70124839E-01
  1.45728720E-01 -1.06206468E-12 -1.14279571E-12  2.16956158E-01  5.83015698E-02
  8.06428617E-02 -1.38561201E-01 -6.91054504E-16 -2.31730540E-13 -2.50365613E-13
  1.80058705E-01  2.47598514E-01  1.80058705E-01  2.47598514E-01  4.28450331E-14
  2.55918893E-13 -7.59517488E-13 -9.84633800E-01 -1.38488913E-12 -1.62291861E-12
  1.19453399E-12  3.12420965E+00  1.81069551E-12 -1.78792729E-12 -1.16151436E-12
  1.80967131E-01 -1.88621271E-12 -7.31822746E-15 -3.53671173E-14  2.35805126E-13
  9.13000893E-16 -3.79786846E-14  8.72049317E-02 -1.72582315E-14 -2.04804703E-13
 -2.21313991E-13 -8.12550220E-02 -5.49317655E-13 -3.47512532E-13 -7.02496483E-15
 -3.91336180E-01 -2.51702646E-13  2.71763318E-12  4.75492465E-13 -7.31530774E-01
  3.49591079E-13 -1.24033072E-14  1.03781180E-14 -3.16468729E-13  2.69741023E-16
  5.84782289E-14  1.29934691E-02  2.27989741E-01  1.35786456E+00 -2.27989741E-01
 -1.35786456E+00 -5.74321231E-12  4.52960582E-11 -1.31567990E-12 -5.13224232E-01
 -4.03748100E-11 -1.44530337E-10  1.98104999E-12  1.10043648E+00  5.18131554E-11
 -5.59396370E-11 -2.68339670E-12  6.46913751E-01  2.17634813E-11  1.66019143E-11
 -1.76364668E-11  1.16670004E-12 -4.96074895E-17 -1.18084222E-13 -2.16924694E-01
 -7.71861182E-13 -1.29158214E-11 -1.19907892E-12  3.03357669E-01  8.22680237E-12
  4.32599238E-11  1.05588685E-12 -2.54417184E-01 -2.74479787E-11 -3.14212716E-11
  9.18602298E-13 -2.66194913E-01  2.73330354E-11 -3.90108050E-12 -2.58949842E-12
 -3.66906414E-12  5.44192390E-16  1.21846764E-13  1.15337101E-01 -7.94312912E-01
  1.71132225E+00  7.94312911E-01 -1.71132225E+00 -6.00959308E-02  4.86133666E-01
 -2.67676366E-12  4.97850192E-11 -4.04825385E-01 -1.53838151E+00  4.02102095E-12
 -1.08766592E-10  5.04888817E-01 -5.46327175E-01 -5.41076108E-12 -6.39394402E-11
  2.71286218E-01  1.73675002E-01 -1.82062164E-01  8.39088056E-03  1.49318373E-15
 -2.39602629E-13  2.08391207E-11 -7.82318653E-03 -1.19254623E-01 -2.44317718E-12
 -2.96074689E-11  9.96746333E-02  4.48178785E-01  2.16898166E-12  2.53885105E-11
 -2.98294841E-01 -3.62080689E-01  1.82024704E-12  2.69227309E-11  2.70041998E-01
 -3.78841431E-02 -2.40055104E-02 -2.78955382E-02  1.06838106E-15  2.47770377E-13
 -1.10715216E-11 -8.40536382E-01  1.69281964E+00 -8.40536382E-01  1.69281965E+00
 -5.46650810E-02 -2.01967108E+00  3.08501372E-12  2.58713468E-13 -1.75392749E-01
  5.41181308E+00 -3.35319226E-12 -1.42273041E-12  1.26400924E+00  8.09068084E-01
  4.66254007E-12 -9.36211078E-13  1.51480056E-01  3.75561063E-02 -1.61600354E-01
 -8.87385409E-02  2.48589734E-16  3.50240213E-13  6.75598802E-14 -8.05296574E-03
  2.54942109E-01  6.87985093E-12 -6.65046801E-13  1.19285226E-02 -1.21547633E+00
 -9.34594803E-12  1.01251167E-12  9.68994869E-02 -3.09317152E+00  1.85357413E-12
  2.98969742E-13  1.69254066E+00  1.76308615E-01  1.14319066E-01 -9.06411238E-02
 -6.64069503E-16 -3.68973164E-13 -1.94916444E-14 -1.42867114E-01 -1.52931063E-01
 -1.42867114E-01 -1.52931063E-01  3.21361618E-02 -3.22291362E-01  1.48553300E-09