Gen - H2CO_S0_frq.chk                                                   
Freq      RB3LYP                                                      6-31+G(d)           
Number of atoms                            I                4
Info1-9                                    I   N=           9
          15          15           0           0           0         100
           6          18        -502
Full Title                                 C   N=           2
Gen - H2CO_S0_frq.chk   
Route                                      C   N=           6
#T B3LYP/6-31+G(d) Int=UltraFine SCF=Tight Freq=SaveNM NoSym
m           
Charge                                     I                0
Multiplicity                               I                1
Number of electrons                        I               16
Number of alpha electrons                  I                8
Number of beta electrons                   I                8
Number of basis functions                  I               42
Number of independent functions            I               42
Number of point charges in /Mol/           I                0
Number of translation vectors              I                0
Atomic numbers                             I   N=           4
           6           8           1           1
Nuclear charges                            R   N=           4
  6.00000000E+00  8.00000000E+00  1.00000000E+00  1.00000000E+00
Current cartesian coordinates              R   N=          12
  0.00000000E+00  0.00000000E+00  0.00000000E+00  0.00000000E+00  0.00000000E+00
  2.28515972E+00  1.77896033E+00  0.00000000E+00 -1.10621738E+00 -1.77896033E+00
  0.00000000E+00 -1.10621738E+00
Number of symbols in /Mol/                 I                0
Force Field                                I                0
Atom Types                                 C   N=           4
                                                
Int Atom Types                             I   N=           4
           0           0           0           0
MM charges                                 R   N=           4
  0.00000000E+00  0.00000000E+00  0.00000000E+00  0.00000000E+00
Integer atomic weights                     I   N=           4
          12          16           1           1
Real atomic weights                        R   N=           4
  1.20000000E+01  1.59949146E+01  1.00782504E+00  1.00782504E+00
Atom fragment info                         I   N=           4
           0           0           0           0
Atom residue num                           I   N=           4
           0           0           0           0
Nuclear spins                              I   N=           4
           0           0           1           1
Nuclear ZEff                               R   N=           4
 -3.60000000E+00 -5.60000000E+00 -1.00000000E+00 -1.00000000E+00
Nuclear ZNuc                               R   N=           4
  6.00000000E+00  8.00000000E+00  1.00000000E+00  1.00000000E+00
Nuclear QMom                               R   N=           4
  0.00000000E+00  0.00000000E+00  0.00000000E+00  0.00000000E+00
Nuclear GFac                               R   N=           4
  0.00000000E+00  0.00000000E+00  2.79284600E+00  2.79284600E+00
MicOpt                                     I   N=           4
          -1          -1          -1          -1
Number of residues                         I                0
Number of secondary structures             I                0
Number of contracted shells                I               14
Number of primitive shells                 I               32
Pure/Cartesian d shells                    I                1
Pure/Cartesian f shells                    I                0
Highest angular momentum                   I                2
Largest degree of contraction              I                6
Shell types                                I   N=          14
           0          -1          -1          -1           2           0
          -1          -1          -1           2           0           0
           0           0
Number of primitives per shell             I   N=          14
           6           3           1           1           1           6
           3           1           1           1           3           1
           3           1
Shell to atom map                          I   N=          14
           1           1           1           1           1           2
           2           2           2           2           3           3
           4           4
Primitive exponents                        R   N=          32
  3.04752488E+03  4.57369518E+02  1.03948685E+02  2.92101553E+01  9.28666296E+00
  3.16392696E+00  7.86827235E+00  1.88128854E+00  5.44249258E-01  1.68714478E-01
  4.38000000E-02  8.00000000E-01  5.48467166E+03  8.25234946E+02  1.88046958E+02
  5.29645000E+01  1.68975704E+01  5.79963534E+00  1.55396162E+01  3.59993359E+00
  1.01376175E+00  2.70005823E-01  8.45000000E-02  8.00000000E-01  1.87311370E+01
  2.82539436E+00  6.40121692E-01  1.61277759E-01  1.87311370E+01  2.82539436E+00
  6.40121692E-01  1.61277759E-01
Contraction coefficients                   R   N=          32
  1.83473713E-03  1.40373228E-02  6.88426223E-02  2.32184443E-01  4.67941348E-01
  3.62311985E-01 -1.19332420E-01 -1.60854152E-01  1.14345644E+00  1.00000000E+00
  1.00000000E+00  1.00000000E+00  1.83107443E-03  1.39501722E-02  6.84450781E-02
  2.32714336E-01  4.70192898E-01  3.58520853E-01 -1.10777550E-01 -1.48026263E-01
  1.13076702E+00  1.00000000E+00  1.00000000E+00  1.00000000E+00  3.34946043E-02
  2.34726953E-01  8.13757326E-01  1.00000000E+00  3.34946043E-02  2.34726953E-01
  8.13757326E-01  1.00000000E+00
P(S=P) Contraction coefficients            R   N=          32
  0.00000000E+00  0.00000000E+00  0.00000000E+00  0.00000000E+00  0.00000000E+00
  0.00000000E+00  6.89990666E-02  3.16423961E-01  7.44308291E-01  1.00000000E+00
  1.00000000E+00  0.00000000E+00  0.00000000E+00  0.00000000E+00  0.00000000E+00
  0.00000000E+00  0.00000000E+00  0.00000000E+00  7.08742682E-02  3.39752839E-01
  7.27158577E-01  1.00000000E+00  1.00000000E+00  0.00000000E+00  0.00000000E+00
  0.00000000E+00  0.00000000E+00  0.00000000E+00  0.00000000E+00  0.00000000E+00
  0.00000000E+00  0.00000000E+00
Coordinates of each shell                  R   N=          42
  0.00000000E+00  0.00000000E+00  0.00000000E+00  0.00000000E+00  0.00000000E+00
  0.00000000E+00  0.00000000E+00  0.00000000E+00  0.00000000E+00  0.00000000E+00
  0.00000000E+00  0.00000000E+00  0.00000000E+00  0.00000000E+00  0.00000000E+00
  0.00000000E+00  0.00000000E+00  2.28515972E+00  0.00000000E+00  0.00000000E+00
  2.28515972E+00  0.00000000E+00  0.00000000E+00  2.28515972E+00  0.00000000E+00
  0.00000000E+00  2.28515972E+00  0.00000000E+00  0.00000000E+00  2.28515972E+00
  1.77896033E+00  0.00000000E+00 -1.10621738E+00  1.77896033E+00  0.00000000E+00
 -1.10621738E+00 -1.77896033E+00  0.00000000E+00 -1.10621738E+00 -1.77896033E+00
  0.00000000E+00 -1.10621738E+00
Constraint Structure                       R   N=          12
  0.00000000E+00  0.00000000E+00  0.00000000E+00  0.00000000E+00  0.00000000E+00
  2.28515972E+00  1.77896033E+00  0.00000000E+00 -1.10621738E+00 -1.77896033E+00
  0.00000000E+00 -1.10621738E+00
Num ILSW                                   I              100
ILSW                                       I   N=         100
           0           1           0           0           2           0
           0           0           0           0         402          -1
           5           0           0           0           2           0
           0           0           2           0           1           0
           1           1           0           0           0           0
           0           0      100000           0          -1           0
           0           0           0           0           0           0
           0           0           0           1           0           0
           0           0           1           0           0           0
           0           0           4          41           0           0
           0           0           5           0           0           0
           0           0           0           0           0           0
           0           0           0           0           0           0
           0           0           0           0           0           0
           0           0           0           0           0           0
           0           0           0           0           0           0
           0           0           0           0
Num RLSW                                   I               41
RLSW                                       R   N=          41
  8.00000000E-01  7.20000000E-01  1.00000000E+00  8.10000000E-01  2.00000000E-01
  0.00000000E+00  0.00000000E+00  1.00000000E+00  0.00000000E+00  0.00000000E+00
  0.00000000E+00  0.00000000E+00  1.00000000E+00  0.00000000E+00  0.00000000E+00
  0.00000000E+00  0.00000000E+00  1.00000000E+00  0.00000000E+00  0.00000000E+00
  0.00000000E+00  0.00000000E+00  1.00000000E+00  0.00000000E+00  0.00000000E+00
  0.00000000E+00  0.00000000E+00  1.00000000E+00  0.00000000E+00  0.00000000E+00
  0.00000000E+00  0.00000000E+00  1.00000000E+00  0.00000000E+00  0.00000000E+00
  0.00000000E+00  0.00000000E+00  0.00000000E+00  1.00000000E+00  1.00000000E+00
  0.00000000E+00
MxBond                                     I                3
NBond                                      I   N=           4
           3           1           1           1
IBond                                      I   N=          12
           2           3           4           1           0           0
           1           0           0           1           0           0
RBond                                      R   N=          12
  2.00000000E+00  1.00000000E+00  1.00000000E+00  2.00000000E+00  0.00000000E+00
  0.00000000E+00  1.00000000E+00  0.00000000E+00  0.00000000E+00  1.00000000E+00
  0.00000000E+00  0.00000000E+00
Virial Ratio                               R      2.009430974336820E+00
SCF Energy                                 R     -1.145088415529523E+02
Total Energy                               R     -1.145088415529523E+02
RMS Force                                  R      1.667015574086755E-06
RMS Density                                R      4.647334606828753E-09
Job Status                                 I                1
Nuclear derivative order                   I                2
External E-field                           R   N=          35
  0.00000000E+00  0.00000000E+00  0.00000000E+00  0.00000000E+00  0.00000000E+00
  0.00000000E+00  0.00000000E+00  0.00000000E+00  0.00000000E+00  0.00000000E+00
  0.00000000E+00  0.00000000E+00  0.00000000E+00  0.00000000E+00  0.00000000E+00
  0.00000000E+00  0.00000000E+00  0.00000000E+00  0.00000000E+00  0.00000000E+00
  0.00000000E+00  0.00000000E+00  0.00000000E+00  0.00000000E+00  0.00000000E+00
  0.00000000E+00  0.00000000E+00  0.00000000E+00  0.00000000E+00  0.00000000E+00
  0.00000000E+00  0.00000000E+00  0.00000000E+00  0.00000000E+00  0.00000000E+00
IOpCl                                      I                0
IROHF                                      I                0
Alpha Orbital Energies                     R   N=          42
 -1.91858462E+01 -1.02996547E+01 -1.07380016E+00 -6.47547062E-01 -5.07089199E-01
 -4.62020888E-01 -4.11027339E-01 -2.81853721E-01 -6.29617022E-02  1.00066243E-02
  3.96730590E-02  4.48858770E-02  6.68295183E-02  1.59087647E-01  1.93861629E-01
  2.15616820E-01  2.24429964E-01  2.47445740E-01  2.68142313E-01  3.62415861E-01
  6.22530188E-01  6.76096402E-01  7.38058187E-01  8.90322240E-01  9.10630792E-01
  1.03454271E+00  1.18202064E+00  1.18240789E+00  1.21643887E+00  1.49480227E+00
  1.50048379E+00  1.50213989E+00  1.67586935E+00  1.85686313E+00  1.91864338E+00
  2.14608441E+00  2.33251773E+00  2.53789859E+00  2.65450064E+00  2.96771707E+00
  4.01874307E+00  4.18570131E+00
Alpha MO coefficients                      R   N=        1764
 -5.10087628E-06  4.41030111E-04 -4.06205740E-16  1.18524814E-16  2.10740154E-04
 -6.43652708E-05  4.26747123E-15  3.51200498E-16 -6.84556182E-04  2.08236898E-03
  2.52272766E-15 -7.92461412E-16  1.15848026E-03 -1.78429955E-04 -1.66846185E-04
 -5.45316070E-04 -1.89272649E-17 -2.81072931E-16  1.00983780E-15  9.92628942E-01
  2.53890002E-02  1.10074992E-16  7.93093784E-17 -1.30907104E-03  1.45834598E-02
 -7.57055538E-16 -7.99187815E-16  3.11940366E-04 -5.52539604E-03 -1.42385947E-15
  8.79954769E-16  1.05433413E-04 -8.47176687E-03 -8.50434040E-03 -8.33653026E-03
  8.03011257E-18  2.49820852E-17  1.03956232E-15 -2.78218392E-06 -1.47570541E-06
 -2.78218392E-06 -1.47570540E-06  9.92925877E-01  4.95108350E-02 -1.47535024E-16
  1.61456698E-16  1.09663051E-03 -1.38923807E-02 -1.38904126E-15  3.66159939E-17
 -1.09705239E-03 -1.99266168E-03 -2.53416412E-15  2.01764345E-16 -6.33300627E-04
 -9.23391362E-03 -9.51258580E-03 -8.60741073E-03  4.15282414E-18  2.00209150E-16
  2.68202987E-16 -1.48874227E-04  3.45863551E-04  1.86172533E-16 -5.97300073E-17
  3.15739015E-05 -1.26226045E-03 -5.33311143E-16  2.37146562E-17  6.93748612E-04
  6.91761140E-03  2.23029062E-15 -3.18359384E-16 -3.09683022E-03  2.79795833E-04
  3.78819127E-04 -9.52431947E-05  3.64895111E-18  5.31884007E-17  3.00265018E-16
 -1.76184977E-04  1.26341980E-03 -1.76184977E-04  1.26341980E-03 -1.16141973E-01
  2.24878193E-01 -9.06688634E-15 -1.98659528E-15  1.89006568E-01  1.00295758E-01
  1.33005128E-13  1.02492200E-14 -1.13834258E-02  2.32088081E-02  3.06456523E-13
 -4.26005064E-14  1.46781813E-02 -1.72113313E-02 -2.00131143E-02  2.70171309E-02
  4.23337498E-16 -2.63540477E-15  9.07038978E-16 -1.97132118E-01  4.34685003E-01
 -7.07602338E-15  1.69542091E-15 -1.66911174E-01  3.84259545E-01  2.01172807E-14
 -1.39569651E-14 -4.26093001E-02 -4.07512101E-02 -1.97665349E-13  3.32459790E-14
  1.11326713E-03 -1.03802011E-02 -4.98610866E-03  9.33870652E-03  1.72422809E-15
  3.81668695E-15  9.79121537E-16  2.75022074E-02 -8.62724553E-03  2.75022074E-02
 -8.62724553E-03 -1.65177750E-01  3.44079799E-01 -8.99187467E-15  1.33394930E-15
 -2.18501542E-01  3.57766713E-01 -2.93551975E-14 -9.36779637E-15 -7.06086618E-02
  1.06758541E-02 -1.03687833E-13  4.40903723E-14 -9.61557560E-03  1.68504799E-02
 -1.35124582E-02 -1.31580363E-02  7.85945109E-16  3.08286540E-17 -8.41992913E-16
  8.77768089E-02 -2.01624605E-01 -1.09198075E-16 -1.43308897E-15 -1.05370511E-01
 -2.59168606E-01 -4.95690556E-16  1.24031202E-14 -4.69811092E-02 -2.39197607E-02
  4.49800335E-14 -3.30536166E-14  9.97118368E-03  6.45570117E-04 -1.45321089E-03
  1.24432428E-02 -1.02785831E-15 -6.28803479E-17 -7.96766348E-16  1.79895386E-01
  6.31317881E-02  1.79895386E-01  6.31317881E-02 -1.68303290E-14 -5.20270818E-14
  4.47475869E-01 -5.57001743E-15  1.42127775E-14  6.54622713E-13  1.60659071E-01
  5.81662534E-14  2.19172874E-13  1.39181936E-12  1.63934308E-02 -2.83131886E-13
  9.47988728E-13 -1.56498332E-14 -1.60887472E-14  1.38579060E-14 -1.84512922E-16
 -7.45971198E-03  4.92033785E-15 -2.55481708E-14 -1.22691474E-13  2.88958130E-01
  1.53311530E-14 -2.26119235E-14  6.02650838E-13  1.45763275E-01 -6.71124345E-14
  1.81039735E-13 -2.42097476E-12  6.75270401E-03  2.06728834E-13  2.40041143E-13
 -6.90155905E-14 -6.74052842E-14 -9.07102671E-14 -4.58151696E-17 -2.29672520E-02
  1.99630427E-15  1.96282149E-01  1.20703656E-01 -1.96282149E-01 -1.20703656E-01
  2.78687371E-02 -8.15298708E-02  1.34926126E-14  2.09764812E-15 -3.68313169E-01
 -7.26685459E-02 -1.09751544E-14 -7.88149478E-15 -1.32219408E-01  1.14045942E-02
 -7.85458176E-14  4.50104028E-14 -7.41171665E-03  2.14816724E-02  8.56068856E-03
 -1.25219065E-02 -4.29354504E-16 -3.61504762E-16 -5.93198996E-16 -8.30281190E-02
  1.76295917E-01  4.83513714E-15 -3.36982642E-16  5.23987650E-01  3.83680592E-01
  3.51698838E-15  1.10363344E-14  2.07302133E-01  9.23019185E-02  2.27034060E-14
 -3.25930103E-14  2.60228455E-02  2.16307815E-03  4.11188756E-03 -2.56698935E-02
  8.09535110E-16 -2.30045191E-15 -5.70295288E-16  8.34173126E-02  6.20177260E-02
  8.34173126E-02  6.20177260E-02  2.55781998E-15  1.24484897E-14  1.95605120E-14
  3.61321573E-01 -1.55765797E-15 -1.04942846E-13 -2.74910952E-13  1.78527242E-01
 -3.10842533E-14 -3.17893684E-13 -6.97609530E-13  2.51898750E-02 -3.10966092E-13
  1.87063688E-15  2.31749374E-15 -1.93563512E-15 -1.15854627E-15  5.37209457E-15
  2.84777184E-02  7.47732803E-15  3.27308426E-14  1.85657951E-14  5.13471760E-01
 -2.98335195E-16 -1.82288643E-13 -5.79616668E-14  3.01301284E-01 -4.05437967E-14
  6.11281387E-13  4.87560976E-13  3.41478883E-02 -2.46155235E-14  1.86392771E-14
  1.81775201E-14  2.31883669E-14 -1.55882601E-15 -5.51789380E-15 -3.41471889E-02
 -2.00749366E-14  3.45241959E-13  3.01418741E-14 -4.31844457E-13  1.42138134E-14
  9.08992147E-14 -1.50387180E-01  1.23034815E-14 -1.31910795E-14 -1.00310832E-12
 -1.89440480E-02 -1.15170976E-13 -4.03543101E-13 -1.81205311E-12 -2.90494730E-02
  8.14383810E-13 -6.53502314E-13  1.97426238E-14  1.99570412E-14 -1.95817746E-14
 -2.29079631E-18  5.50765691E-02 -1.36020240E-14  1.68827418E-14  8.97435702E-14
  5.85744183E-01 -6.14052651E-14  1.15907857E-14 -3.45872092E-13  3.82959883E-01
  1.35927037E-13 -2.31630968E-13  2.56569110E-12  1.09216040E-01 -5.62167076E-13
 -4.74789138E-13  4.43727105E-14  4.72793307E-14  7.65827202E-14 -1.38384002E-16
 -1.87068638E-02 -4.20990928E-15 -1.79952906E-01 -2.61968539E-01  1.79952906E-01
  2.61968539E-01  1.76021080E-13  1.72523973E-14  2.44497828E-12  4.61279174E-01
  7.79992672E-14 -4.02301904E-12 -5.57542405E-12  5.20078351E-01 -1.69751365E-12
 -1.14577334E-11 -3.07074008E-11  3.75320680E-01 -1.38936086E-11 -1.24687038E-14
  4.20833073E-14 -8.27832171E-16 -1.66493670E-15 -2.76666563E-14 -3.42902980E-02
  5.47982386E-14  1.01510571E-12 -2.10842160E-13 -4.26513480E-01 -8.97536339E-14
 -3.47735468E-12 -2.42654585E-12 -3.58456825E-01 -1.49296127E-12  2.07743639E-11
  1.66460678E-11 -2.91009350E-01 -3.39529092E-13  3.78691972E-13  3.83457632E-13
  5.23878954E-13  5.77515830E-16 -1.41148026E-13 -3.04143079E-04  1.22251117E-13
  9.78244121E-12  4.35633689E-14 -1.24945347E-11  7.01251433E-02 -1.77650586E-01
 -9.02534802E-12 -2.74530595E-12  1.58620261E-01 -3.83714156E-01  2.06787097E-12
 -3.83624850E-12  3.45002925E-01  1.63630164E+00  7.01786856E-11  9.66713341E-12
 -2.84424622E-01 -9.00047217E-03  5.60862590E-03  9.09048613E-03 -8.14791595E-16
  2.36612794E-13  2.99812704E-14  4.43557517E-03 -2.38252237E-02  8.30742850E-13
  1.30491173E-12 -6.19859544E-02 -3.37221747E-02  5.97242092E-12  2.42749155E-12
 -4.92944604E-03 -8.28366581E-01 -3.21111849E-11 -3.76895661E-12  3.15786293E-01
 -1.31275728E-03 -2.26464994E-03 -1.12892216E-02  3.95279595E-17  3.51286061E-13
  2.90602538E-14  1.64048219E-02  1.15431920E-01  1.64048219E-02  1.15431920E-01
  2.21117018E-02 -7.42594991E-03  4.95829609E-10 -2.47816121E-11 -1.90900357E-02
 -5.13135818E-01  4.14902875E-10 -3.33083927E-11 -3.48490444E-01 -1.43355873E+00
 -2.72155159E-09  9.91735446E-11 -1.44468272E+00 -9.04660367E-03 -5.88605370E-03
  1.57876408E-02 -2.50603264E-16 -1.61051688E-11 -7.80475993E-15 -4.33720063E-02
  1.26006403E-01 -1.44613274E-11  7.73210932E-12 -1.20973027E-02  3.16849124E-01
 -1.58110896E-10  1.65890858E-11 -1.56701974E-01  1.60063652E+00  7.14420482E-10
 -2.95779958E-11 -1.09581533E-01 -2.22373432E-03 -2.05284265E-03  1.25159311E-02
  2.80749506E-16 -1.94058182E-11  5.56949642E-13  1.36764325E-02 -2.72623727E-03
  1.36764325E-02 -2.72623754E-03  4.18141080E-11 -1.52778792E-11 -2.50414752E-01
  8.21032959E-11 -4.87221503E-11 -9.58184617E-10 -2.38211125E-01  1.09278186E-10
 -7.10531600E-10 -2.81365765E-09  1.29352975E+00 -3.30934165E-10 -2.82875101E-09
 -2.03646220E-11 -1.49982370E-11  3.57012405E-11 -1.59292068E-16  8.10496784E-03
  1.43714329E-13 -9.72321372E-11  2.54721747E-10  7.67039593E-03 -2.32531950E-11
 -2.29949602E-11  7.80271553E-10  7.63379640E-02 -5.09411995E-11 -2.97705485E-10
  2.92231016E-09 -3.11954110E-01  9.14326264E-11 -2.06092074E-10 -1.38025323E-11
 -1.34956628E-11  1.42580415E-11 -9.83360254E-17  9.64999606E-03 -2.04205515E-12
 -1.50525977E-02 -2.29441579E-02  1.50525978E-02  2.29441579E-02 -2.99010194E-12
  3.81789120E-12 -7.38083353E-11 -3.04648872E-01 -2.78333555E-13  4.74041330E-11
 -1.10046790E-10 -3.86011448E-01  2.11834693E-11  7.14217451E-11  2.75285541E-10
  1.21315092E+00  8.62366191E-11  8.78632826E-13  7.80776642E-13 -1.94802668E-12
  8.06883179E-16  2.36585008E-12 -1.96923935E-03  4.89219645E-12 -8.90385883E-12
  1.15042289E-12  4.76317384E-02  1.84632192E-12 -4.99574319E-11  1.35491790E-11
  1.14447126E-01  9.36320605E-12 -5.27356469E-11 -1.49529727E-11 -1.86716240E-01
  7.34397099E-12  1.84213485E-12  1.93559226E-12  1.21722960E-12 -5.14791039E-16
  2.82561087E-12  1.10548218E-02 -5.71377994E-12  3.70079283E-11  1.59204340E-12
 -6.24167046E-11 -1.13227996E-01  1.25312288E-01 -9.72054795E-12  2.49560483E-12
 -1.70733800E-01  1.85153076E+00 -2.24526669E-11  3.22788837E-12 -7.87368738E-01
  8.89490421E-01  4.61488970E-12 -5.85316652E-13 -5.75646609E-01 -4.13006442E-02
  1.30543202E-02 -1.93329738E-02 -4.98344230E-16  9.64061994E-14  4.93395977E-14
  1.94323928E-02 -5.23986747E-02  2.70638306E-12  2.29748634E-12  2.03984814E-02
 -5.05532567E-02  6.15155770E-12  4.92907244E-12 -6.79230650E-02  1.67024032E-01
 -5.31604401E-13 -1.71686486E-11  4.10269091E-01 -9.33362720E-03  1.09654765E-02
  1.71085046E-02 -2.66528777E-16  2.04318230E-13 -3.40997638E-13 -1.74761607E-01
 -1.60732086E+00 -1.74761607E-01 -1.60732086E+00 -1.40557332E-02 -2.16230826E-02
 -8.63691406E-12  4.65429930E-13  5.11835124E-02  4.68320578E-01 -2.59718579E-11
  1.31650994E-12  1.59563958E-01 -1.11420896E-03 -1.53818819E-11  4.47993730E-12
 -1.85527142E-01 -1.28340141E-02 -3.77787553E-02  2.07230383E-03  5.99499631E-17
 -4.49965742E-15  2.50027378E-14  5.70297041E-03 -2.21015921E-02  5.77468930E-13
  1.69850399E-12 -1.53455405E-01  6.11697994E-02  6.65560836E-13  3.46092373E-12
 -3.05442803E-01 -8.27835321E-01  2.28039313E-11 -1.26373874E-11  1.89914971E+00
 -6.34157853E-03 -1.67139565E-02  3.35496458E-02 -2.12495935E-16  3.88393849E-13
 -1.72460800E-13  5.02911074E-02  6.56495690E-01  5.02911074E-02  6.56495690E-01
  1.04411597E-13  1.69847685E-12  2.04241442E-01 -1.71970522E-12  3.61409712E-12
 -3.28330121E-11  5.13667947E-01  2.54443983E-11 -6.00225643E-12 -8.52652299E-11
 -3.99227553E-01  1.43973034E-10 -5.29293879E-11  9.03234907E-13  1.65325300E-12
 -2.28674999E-12 -2.54383600E-16  1.32689706E-03  5.15906829E-13  4.48770689E-12
 -2.64874229E-12 -2.94080185E-01  3.98567161E-11  1.14208397E-12 -6.39298337E-11
 -5.57578333E-01  7.72379961E-11 -7.01864499E-12  1.91190269E-10  1.42113836E+00
 -2.93941607E-10 -2.32426678E-11  3.39481407E-12  3.56433545E-12  4.13984587E-12
  1.14916560E-16  1.35328999E-02 -3.22552642E-12 -2.43145307E-02 -8.09482277E-01
  2.43145307E-02  8.09482277E-01 -1.11708382E-12 -1.19318539E-12  1.33589244E-10
  3.82981045E-02 -6.62827379E-12  4.50631673E-11  4.13601246E-10 -1.55617934E-01
 -2.89337981E-11  1.13971184E-10  2.04085760E-10 -9.88982626E-01  4.70713682E-11
 -2.22380373E-12 -1.49193803E-12  2.23069552E-12 -2.08510629E-16  1.65614218E-12
 -3.19849923E-03 -5.31847415E-12  1.88690753E-12 -6.12189906E-11 -2.53409875E-01
 -4.08095809E-12  8.89077126E-11 -1.05008766E-10 -4.79478107E-01 -4.67519922E-12
 -1.99358510E-10 -5.58580573E-11  1.85904211E+00  3.55852064E-11 -4.65881331E-12
 -4.40271661E-12 -4.13218978E-12  5.47307377E-16 -2.49641517E-12  1.86446371E-02
 -2.32711263E-11 -5.23100704E-10  2.04256573E-11  4.88976880E-10  3.75070788E-12
  2.28740007E-11 -4.57019127E-01  2.21653840E-11  9.02020149E-11 -4.65154751E-10
 -1.50043922E+00 -3.41629745E-11  2.62785570E-10 -1.67503666E-09 -1.39400530E+00
 -2.49425643E-10 -9.27887858E-10  2.36040984E-11  2.21304412E-11 -3.61057091E-11
  3.88491434E-16 -1.09190154E-02 -6.95794445E-13  7.78504543E-11 -4.17195206E-11
  6.42013351E-02 -5.59637045E-11  4.48303071E-11 -1.24500111E-09  7.44516902E-02
 -9.86014121E-11  7.10881081E-12  3.07884973E-09  1.34542099E+00  4.03219850E-10
 -3.25212957E-10  6.12522705E-11  6.00061801E-11  6.35015057E-11 -1.30931426E-16
  2.32771544E-02  3.13723714E-12  9.94540465E-02  1.73646486E+00 -9.94540465E-02
 -1.73646486E+00 -4.25452611E-03  4.06021344E-02  2.69166729E-10  6.62003012E-12
  1.54429737E-01 -4.52484491E-01  8.93732147E-10 -7.49452121E-12  5.80579554E-01
 -2.64062321E+00  9.54215481E-10 -5.38121074E-11 -1.57666845E+00  3.65623255E-02
  3.25200750E-02 -5.72752975E-02  4.79085830E-16  9.22757122E-12 -1.44244000E-13
  1.22833898E-01 -7.43643781E-02 -2.95356219E-11 -1.12975313E-11  8.84135892E-02
 -2.02027572E+00 -2.58521222E-11 -1.84582986E-11  9.03199879E-02  4.65019567E+00
 -9.00789809E-10  7.96791808E-11 -3.63240543E-01  9.27772786E-02  9.03756360E-02
  9.41450597E-02 -3.67188829E-16 -1.58746509E-11  4.70157003E-13 -1.20597015E-02
  1.63069200E-01 -1.20597014E-02  1.63069202E-01  1.07877331E-01 -2.03375398E-01
  1.81097243E-11  8.69791801E-13 -1.34061855E-01 -3.31397219E+00  5.22739783E-11
 -8.70728238E-13 -2.80065338E+00 -1.93745450E+00  8.14145632E-11 -3.18790133E-12
 -2.43447890E-01 -3.60969813E-02  6.60584030E-03  5.25687959E-03 -6.09342378E-16
  1.52544899E-12 -9.51659699E-15 -3.52967234E-02 -2.41415572E-02 -1.17481438E-13
 -6.60185338E-13 -3.22279783E-01  1.35062355E+00  7.04350086E-13 -6.44638313E-13
 -1.24373706E+00  4.67533682E+00 -7.23221089E-11  4.00564375E-12 -1.44830044E+00
 -3.08046911E-02 -2.04645814E-02  7.93234864E-03  5.34631213E-16 -1.68911887E-12
 -1.27909328E-14 -4.06788305E-02 -3.96300335E-01 -4.06788305E-02 -3.96300335E-01
 -3.21904623E-13 -1.12876568E-12 -5.69600143E-12 -1.05144557E+00  4.59820707E-12
  2.59294209E-12  1.01504094E-12  1.54471697E+00 -6.67713507E-12 -8.86130981E-12
 -1.15505020E-11 -5.01000214E-01 -4.16631839E-12 -3.25934947E-13  4.68664127E-13
 -8.81415177E-13 -1.21875358E-16 -9.53625405E-13 -2.02164894E-02  3.08844243E-13
 -2.09569387E-12 -2.25943772E-13  7.77903249E-02  1.30167254E-12  9.17257971E-13
 -1.45770883E-13 -2.19676726E-01  5.87997928E-13  1.26639127E-11  8.97498934E-12
 -1.52032848E-01 -1.52226811E-12 -5.54016004E-13 -4.32904667E-13  3.02928090E-13
 -6.42559874E-16  7.80049089E-13  6.62570636E-02  2.30084712E-12 -2.23074062E-13
 -5.60352660E-12 -1.59872096E-12  6.12212483E-02  1.62987352E-01  4.93273387E-13
 -4.58937244E-12 -1.02667558E+00 -7.96891352E-01  8.81657724E-12  6.99071296E-12
  1.43789753E+00  2.12455881E-01  6.27010888E-12 -4.38542369E-12 -4.14168424E-01
  4.64288260E-02 -7.76189630E-02  1.80201774E-01  2.21362808E-16  1.12391208E-12
 -1.36464488E-13 -3.40823071E-02  2.10570218E-01 -1.27748151E-12 -2.64250402E-13
 -3.54446330E-01 -4.83827105E-01 -8.56012497E-13 -8.21982463E-13 -1.81754447E-01
  1.14176921E-02 -5.98882952E-12  1.08540310E-12  2.64826579E-01  8.43973569E-02
  6.29281612E-02 -1.32519627E-01  1.11624684E-15 -5.12546386E-13  3.11835017E-13
  2.02519279E-01  2.53479801E-01  2.02519279E-01  2.53479801E-01 -6.49359637E-14
 -1.09822897E-12 -9.39356569E-01  1.37264733E-12  3.52209431E-12  2.26831366E-12
  2.94656508E+00 -2.14169256E-12 -5.99899187E-12 -2.47345457E-13  8.82297789E-02
  1.89892328E-12  2.79338060E-12 -2.42190813E-14  5.78936798E-14 -5.49904175E-13
 -5.60576756E-16  9.57926263E-02  6.00211640E-14  7.01379650E-14 -2.27978654E-13
 -9.32434387E-02  3.14188514E-13  9.98832725E-13  1.67993577E-12 -3.67471490E-01
  8.71751848E-14  2.64148838E-13  4.05181929E-14 -6.79042426E-01 -7.33968868E-13
 -2.03351598E-12 -1.71361659E-13 -1.04945037E-13  5.23828133E-13  8.46115249E-16
  4.93006920E-03 -1.01419258E-13 -2.76470250E-01 -1.17320395E+00  2.76470250E-01
  1.17320395E+00  6.39504849E-13  1.33938634E-11  5.87249364E-01 -4.24736080E-12
  1.02208919E-11 -1.94553339E-11 -1.32174073E+00  6.43190826E-12 -1.92289352E-11
  3.19599245E-11 -6.49078056E-01 -8.50217100E-12  1.60785154E-11  4.16306878E-12
 -1.72885528E-12 -1.25540538E-12  2.68739295E-15  2.14563459E-01 -3.43994537E-13
  2.41302772E-13  9.69538292E-12 -2.93801524E-01 -3.67640068E-12  6.00646710E-12
 -6.21922820E-12  2.84951889E-01  3.12008208E-12 -2.78165995E-12 -1.29171025E-11
  3.21608780E-01  2.94086239E-12 -1.10133199E-11  1.87364459E-12  1.66258696E-12
  6.05414141E-12 -1.25180596E-15 -1.13821452E-01  3.75176344E-13 -7.71249554E-01
  1.81724077E+00  7.71249554E-01 -1.81724077E+00 -5.94784454E-02  4.24410522E-01
  6.81441335E-12  5.96240934E-13 -4.62379399E-01 -1.43577374E+00 -1.56096588E-11
 -8.84263921E-13  5.78924601E-01 -5.06185192E-01 -1.03860527E-11  1.19682339E-12
  2.94229504E-01 -1.84819421E-01  1.75996190E-01  6.17493945E-03 -8.19227912E-16
  3.09105109E-12  5.28304585E-14 -1.12871618E-02 -1.00123395E-01 -3.75165156E-12
  5.91277756E-13  9.17939928E-02  4.19507992E-01  3.27426013E-12 -5.55048570E-13
 -3.30515211E-01 -4.57519536E-01  4.37594630E-12 -3.70414070E-13  3.19252638E-01
 -1.84740556E-02 -2.96284760E-02 -3.72472569E-02  3.06567283E-16 -1.58046083E-12
 -5.50255154E-14 -8.44604330E-01  1.69561455E+00 -8.44604330E-01  1.69561455E+00
 -5.23515004E-02 -2.04713659E+00  3.71518463E-12  2.25752063E-13 -1.51022473E-01
  5.57376400E+00 -1.62821394E-11 -2.59801597E-13  1.26089906E+00  8.35317903E-01
 -1.10581613E-11  3.67309844E-13  1.45745527E-01 -1.52174936E-01  2.90671678E-02
 -8.71330242E-02  4.97952235E-15  1.35123148E-12  1.91841944E-14 -6.21475857E-03
  2.68131487E-01 -5.78370288E-12  4.86422121E-13 -1.38451275E-02 -1.27091628E+00
  8.45118225E-12 -6.45398834E-13  2.01005305E-01 -3.09573458E+00  4.61850523E-12
  1.04082798E-13  1.66780302E+00  1.15744606E-01  1.76715491E-01 -8.43335448E-02
  3.63300365E-15 -4.75937898E-13 -2.53874307E-14 -1.11414965E-01 -2.51583066E-01
 -1.11414965E-01 -2.51583066E-01 -1.63757829E-11  1.42601643E-10  2.32966846E-13
 -1.32898151E-01 -9.88205394E-11 -1.86489432E-09  1.71373147E-11 -1.29379060E-01
 -9.22714448E-10 -4.40519778E-10 -1.32956660E-12  4.33770723E-01 -2.18994839E-10