HOF TD                                                                  
SP        RB3LYP TD-FC                                                3-21G               
Number of atoms                            I                3
Info1-9                                    I   N=           9
          18          16           0           0           0         110
           1         218        -501
Full Title                                 C   N=           1
HOF TD      
Route                                      C   N=           3
#P B3LYP/3-21G TD=(NStates=6)       
Charge                                     I                0
Multiplicity                               I                1
Number of electrons                        I               18
Number of alpha electrons                  I                9
Number of beta electrons                   I                9
Number of basis functions                  I               20
Number of independent functions            I               20
Number of point charges in /Mol/           I                0
Number of translation vectors              I                0
Atomic numbers                             I   N=           3
           8           1           9
Nuclear charges                            R   N=           3
  8.00000000E+00  1.00000000E+00  9.00000000E+00
Current cartesian coordinates              R   N=           9
  1.05074075E-01  1.39489992E+00  0.00000000E+00 -1.78625928E+00  1.61881538E+00
  0.00000000E+00  1.05074075E-01 -1.41977942E+00  0.00000000E+00
Number of symbols in /Mol/                 I                0
Int Atom Types                             I   N=           3
           0           0           0
Force Field                                I                0
Atom Types                                 C   N=           3
                                    
MM charges                                 R   N=           3
  0.00000000E+00  0.00000000E+00  0.00000000E+00
Integer atomic weights                     I   N=           3
          16           1          19
Real atomic weights                        R   N=           3
  1.59949146E+01  1.00782504E+00  1.89984032E+01
Atom fragment info                         I   N=           3
           0           0           0
Atom residue num                           I   N=           3
           0           0           0
Nuclear spins                              I   N=           3
           0           1           1
Nuclear ZEff                               R   N=           3
 -5.60000000E+00 -1.00000000E+00 -6.75000000E+00
Nuclear ZNuc                               R   N=           3
  8.00000000E+00  1.00000000E+00  9.00000000E+00
Nuclear QMom                               R   N=           3
  0.00000000E+00  0.00000000E+00  0.00000000E+00
Nuclear GFac                               R   N=           3
  0.00000000E+00  2.79284600E+00  2.62886700E+00
MicOpt                                     I   N=           3
          -1          -1          -1
Number of residues                         I                0
Number of secondary structures             I                0
SymInf integers                            I   N=          26
           1           2           1           1           1           1
           1          -1           0           0           0           0
           0           0           0           0           0           0
           0           0           0           0           0           0
           0           0
RotTr to input orientation                 R   N=          12
 -1.17569195E-01  0.00000000E+00 -9.93064693E-01 -9.93064693E-01  0.00000000E+00
  1.17569195E-01  0.00000000E+00  1.00000000E+00  0.00000000E+00  1.39757933E+00
  0.00000000E+00 -5.96519070E-02
Number of contracted shells                I                8
Number of primitive shells                 I               15
Pure/Cartesian d shells                    I                1
Pure/Cartesian f shells                    I                0
Highest angular momentum                   I                1
Largest degree of contraction              I                3
Shell types                                I   N=           8
           0          -1          -1           0           0           0
          -1          -1
Number of primitives per shell             I   N=           8
           3           2           1           2           1           3
           2           1
Shell to atom map                          I   N=           8
           1           1           1           2           2           3
           3           3
Primitive exponents                        R   N=          15
  3.22037000E+02  4.84308000E+01  1.04206000E+01  7.40294000E+00  1.57620000E+00
  3.73684000E-01  5.44717800E+00  8.24547240E-01  1.83191580E-01  4.13801000E+02
  6.22446000E+01  1.34340000E+01  9.77759000E+00  2.08617000E+00  4.82383000E-01
Contraction coefficients                   R   N=          15
  5.92393934E-02  3.51499961E-01  7.07657921E-01 -4.04453583E-01  1.22156176E+00
  1.00000000E+00  1.56284979E-01  9.04690877E-01  1.00000000E+00  5.85483029E-02
  3.49308017E-01  7.09632036E-01 -4.07326278E-01  1.22313783E+00  1.00000000E+00
P(S=P) Contraction coefficients            R   N=          15
  0.00000000E+00  0.00000000E+00  0.00000000E+00  2.44586107E-01  8.53955373E-01
  1.00000000E+00  0.00000000E+00  0.00000000E+00  0.00000000E+00  0.00000000E+00
  0.00000000E+00  0.00000000E+00  2.46680003E-01  8.52321011E-01  1.00000000E+00
Coordinates of each shell                  R   N=          24
  1.05074075E-01  1.39489992E+00  0.00000000E+00  1.05074075E-01  1.39489992E+00
  0.00000000E+00  1.05074075E-01  1.39489992E+00  0.00000000E+00 -1.78625928E+00
  1.61881538E+00  0.00000000E+00 -1.78625928E+00  1.61881538E+00  0.00000000E+00
  1.05074075E-01 -1.41977942E+00  0.00000000E+00  1.05074075E-01 -1.41977942E+00
  0.00000000E+00  1.05074075E-01 -1.41977942E+00  0.00000000E+00
Num ILSW                                   I              100
ILSW                                       I   N=         100
           0           1           0           0           2           0
           0           0           0           0         402          -1
           5           0           0           0           0           0
           0           0           0           0           0           0
           1           0           0           0           0           0
           0           0      100000           0          -1           0
           0           0           0           0           0           0
           0           0           0           1           0           0
           0 -2000000000           1           0           0           0
           0           0           4          52           0           0
           0           0           5           0           0           0
           0           0           0           3           0           1
           0           0           0           0           0           0
           0           0           0           0           0           0
           0           0           0           0           0           0
           0           0           0           0           0           0
           0           0           0           0
Num RLSW                                   I               52
RLSW                                       R   N=          52
  8.00000000E-01  7.20000000E-01  1.00000000E+00  8.10000000E-01  2.00000000E-01
  0.00000000E+00  0.00000000E+00  1.00000000E+00  0.00000000E+00  0.00000000E+00
  0.00000000E+00  0.00000000E+00  1.00000000E+00  0.00000000E+00  0.00000000E+00
  0.00000000E+00  0.00000000E+00  1.00000000E+00  0.00000000E+00  0.00000000E+00
  0.00000000E+00  0.00000000E+00  1.00000000E+00  0.00000000E+00  0.00000000E+00
  0.00000000E+00  0.00000000E+00  1.00000000E+00  0.00000000E+00  0.00000000E+00
  0.00000000E+00  0.00000000E+00  1.00000000E+00  0.00000000E+00  0.00000000E+00
  0.00000000E+00  0.00000000E+00  0.00000000E+00  1.00000000E+00  1.00000000E+00
  0.00000000E+00  1.00000000E+00  0.00000000E+00  0.00000000E+00  0.00000000E+00
  0.00000000E+00  0.00000000E+00  0.00000000E+00  0.00000000E+00  0.00000000E+00
  0.00000000E+00  0.00000000E+00
MxBond                                     I                2
NBond                                      I   N=           3
           2           1           1
IBond                                      I   N=           6
           2           3           1           0           1           0
RBond                                      R   N=           6
  1.00000000E+00  1.00000000E+00  1.00000000E+00  0.00000000E+00  1.00000000E+00
  0.00000000E+00
Virial Ratio                               R      2.007852507033972E+00
SCF Energy                                 R     -1.745741816475317E+02
CIS Energy                                 R     -1.744236241492205E+02
Total Energy                               R     -1.744236241492205E+02
Post-SCF wavefunction norm                 R      1.000000000000000E+00
RMS Density                                R      5.198572792202719E-10
Job Status                                 I                1
Nuclear derivative order                   I                0
External E-field                           R   N=          35
  0.00000000E+00  0.00000000E+00  0.00000000E+00  0.00000000E+00  0.00000000E+00
  0.00000000E+00  0.00000000E+00  0.00000000E+00  0.00000000E+00  0.00000000E+00
  0.00000000E+00  0.00000000E+00  0.00000000E+00  0.00000000E+00  0.00000000E+00
  0.00000000E+00  0.00000000E+00  0.00000000E+00  0.00000000E+00  0.00000000E+00
  0.00000000E+00  0.00000000E+00  0.00000000E+00  0.00000000E+00  0.00000000E+00
  0.00000000E+00  0.00000000E+00  0.00000000E+00  0.00000000E+00  0.00000000E+00
  0.00000000E+00  0.00000000E+00  0.00000000E+00  0.00000000E+00  0.00000000E+00
IOpCl                                      I                0
IROHF                                      I                0
Alpha Orbital Energies                     R   N=          20
 -2.45698440E+01 -1.91278451E+01 -1.19154113E+00 -9.53616093E-01 -5.19784488E-01
 -4.46636663E-01 -4.15284008E-01 -3.45349748E-01 -2.87617570E-01 -4.86167647E-02
  7.81168087E-02  8.86935146E-01  1.37076963E+00  1.47080778E+00  1.51553550E+00
  1.87096895E+00  1.89764658E+00  1.98660694E+00  2.53025541E+00  3.39938140E+00
Alpha MO coefficients                      R   N=         400
 -4.79715360E-04 -2.84501707E-03 -1.18945957E-05  8.84822816E-04  0.00000000E+00
  6.54698211E-03 -2.10887591E-04 -6.86656979E-03  0.00000000E+00 -1.98197039E-03
  2.02653084E-03  9.80983328E-01  9.99209599E-02 -1.50604215E-04  2.16833971E-03
  0.00000000E+00 -3.17043819E-02  2.64249432E-04 -5.62121900E-03  0.00000000E+00
  9.82231951E-01  1.01919123E-01 -2.95885350E-03 -1.95625378E-03  0.00000000E+00
 -3.95912461E-02  6.41815519E-03  4.59438644E-03  0.00000000E+00  3.04647449E-03
  8.21494306E-03 -2.30888240E-04 -2.36801894E-03  8.18413879E-06 -5.54369363E-04
  0.00000000E+00  6.69902506E-03 -1.09881811E-04  5.73369642E-03  0.00000000E+00
 -1.12588432E-01  1.11961267E-01 -3.50367291E-02 -6.81216817E-02  0.00000000E+00
  3.22463988E-01 -3.62565323E-02 -4.97764277E-02  0.00000000E+00  4.70251545E-02
  6.65393778E-03 -2.13601136E-01  2.09063452E-01 -6.79821928E-03  6.74469617E-02
  0.00000000E+00  6.52153238E-01 -9.11329974E-03  5.93861918E-02  0.00000000E+00
 -2.04351682E-01  2.01852413E-01 -1.05120327E-01  2.27150663E-02  0.00000000E+00
  6.43562027E-01 -9.99667214E-02  5.67234734E-03  0.00000000E+00  1.32631968E-01
  2.75677087E-02  1.38582160E-01 -1.33420934E-01 -4.55227869E-03  5.41309789E-02
  0.00000000E+00 -4.74725453E-01 -5.98204179E-04  2.82164947E-02  0.00000000E+00
 -4.01064468E-02  3.29325965E-02  2.96323098E-01 -2.11839151E-01  0.00000000E+00
  1.86446116E-01  2.66191037E-01 -1.93224975E-01  0.00000000E+00 -2.00160350E-01
 -1.76316301E-01  4.08512071E-02 -4.23935731E-02  1.27656973E-01  2.74020913E-01
  0.00000000E+00 -1.59220214E-01  1.31276737E-01  2.80589951E-01  0.00000000E+00
 -7.90209107E-02  7.59389565E-02  2.28190619E-01  2.53423585E-01  0.00000000E+00
  3.23822518E-01  2.32434111E-01  2.66542923E-01  0.00000000E+00 -8.45393548E-02
 -8.29841230E-02 -2.62703209E-02  2.47526467E-02  2.34928771E-01 -2.73846498E-01
  0.00000000E+00  1.17459521E-01  2.53861030E-01 -2.75442790E-01  0.00000000E+00
  0.00000000E+00  0.00000000E+00  0.00000000E+00  0.00000000E+00  2.94236879E-01
  0.00000000E+00  0.00000000E+00  0.00000000E+00  3.32832023E-01  0.00000000E+00
  0.00000000E+00  0.00000000E+00  0.00000000E+00  0.00000000E+00  0.00000000E+00
  4.44857621E-01  0.00000000E+00  0.00000000E+00  0.00000000E+00  4.73944440E-01
  4.91088331E-02 -4.58055423E-02 -2.31675424E-01 -7.66012277E-02  0.00000000E+00
 -2.13879565E-01 -2.05458595E-01 -8.68757783E-02  0.00000000E+00  1.46378831E-01
  9.14754699E-02 -4.35384483E-04  3.48874206E-03  4.93521302E-01  6.10793145E-02
  0.00000000E+00 -1.09177324E-02  5.26452109E-01  5.67410719E-02  0.00000000E+00
  0.00000000E+00  0.00000000E+00  0.00000000E+00  0.00000000E+00  4.72055355E-01
  0.00000000E+00  0.00000000E+00  0.00000000E+00  5.02914391E-01  0.00000000E+00
  0.00000000E+00  0.00000000E+00  0.00000000E+00  0.00000000E+00  0.00000000E+00
 -3.45679174E-01  0.00000000E+00  0.00000000E+00  0.00000000E+00 -3.66438611E-01
  6.53125998E-02 -6.58557577E-02  3.73749127E-02  4.50992186E-01  0.00000000E+00
 -3.48079802E-01  7.83319720E-02  5.55580256E-01  0.00000000E+00  1.75541076E-02
  2.15945936E-01 -4.66707160E-02  5.09398305E-02  4.71156052E-03  4.18549434E-01
  0.00000000E+00  2.36388556E-01  1.02482411E-02  5.19612839E-01  0.00000000E+00
  6.95180074E-02 -3.79519538E-02  3.20608934E-01 -1.22361210E-01  0.00000000E+00
 -6.51480084E-01  5.56675358E-01 -1.78134239E-01  0.00000000E+00  1.69615662E-01
  1.21627921E+00  2.02973384E-02 -2.20783383E-02  4.31345234E-03 -5.95924333E-02
  0.00000000E+00 -1.20449403E-01  1.45192966E-02 -9.10390900E-02  0.00000000E+00
  2.70874715E-02 -6.06280214E-02  3.14278754E-01  7.00622757E-02  0.00000000E+00
  1.43039391E-01  1.18433810E-01 -7.91343605E-02  0.00000000E+00  1.28574243E+00
 -1.00576431E+00 -1.62630539E-02  4.62236532E-02 -8.50656754E-02  5.84638171E-02
  0.00000000E+00  4.39189833E-02 -2.05902653E-02  5.95452098E-03  0.00000000E+00
  0.00000000E+00  0.00000000E+00  0.00000000E+00  0.00000000E+00  9.88418845E-01
  0.00000000E+00  0.00000000E+00  0.00000000E+00 -9.51699167E-01  0.00000000E+00
  0.00000000E+00  0.00000000E+00  0.00000000E+00  0.00000000E+00  0.00000000E+00
  2.30453790E-01  0.00000000E+00  0.00000000E+00  0.00000000E+00 -9.85064550E-02
  5.12469262E-02 -1.91472629E-01 -6.42032319E-01 -6.97211302E-01  0.00000000E+00
 -6.92762825E-02  7.86694438E-01  8.24182254E-01  0.00000000E+00  3.37367783E-01
  2.48423580E-03 -3.14495902E-02  5.42206251E-02 -2.51605387E-01 -4.28158194E-02
  0.00000000E+00  2.06688987E-01  1.43205961E-01  2.85190589E-01  0.00000000E+00
 -7.52343065E-03  2.10279181E-02  6.78885153E-01 -7.20651537E-01  0.00000000E+00
  8.54741629E-02 -8.75211709E-01  9.26631488E-01  0.00000000E+00 -2.03479167E-01
 -3.25019940E-01 -4.01557196E-02  8.52110518E-02  2.03000018E-01 -5.15484080E-02
  0.00000000E+00  2.31360535E-01 -1.13873814E-01  3.25538381E-01  0.00000000E+00
  0.00000000E+00  0.00000000E+00  0.00000000E+00  0.00000000E+00  2.28353933E-01
  0.00000000E+00  0.00000000E+00  0.00000000E+00 -3.48144256E-01  0.00000000E+00
  0.00000000E+00  0.00000000E+00  0.00000000E+00  0.00000000E+00  0.00000000E+00
 -9.74396921E-01  0.00000000E+00  0.00000000E+00  0.00000000E+00  1.00162328E+00
 -1.60092576E-02  9.59437410E-02  2.91760152E-01  2.64787394E-02  0.00000000E+00
 -5.46268510E-02 -5.18306943E-01 -6.52144067E-03  0.00000000E+00 -2.80188643E-01
  9.57141253E-02 -6.67583105E-04  7.96821959E-03 -9.45183293E-01 -4.40229603E-02
  0.00000000E+00 -1.06137738E-02  9.99823467E-01  4.29955798E-02  0.00000000E+00
  4.54133744E-02 -1.90132107E-01  1.09284141E-02  1.69600486E-01  0.00000000E+00
 -6.23100321E-02 -2.20358020E-02  1.52584578E-01  0.00000000E+00  6.11733547E-02
 -1.19971360E-01 -3.00268968E-02  1.64865342E-01  3.64385215E-02 -9.85855111E-01
  0.00000000E+00 -4.22373679E-02 -4.13013232E-02  1.09143648E+00  0.00000000E+00
  8.96188224E-02 -1.41147531E+00  1.68761526E-01  4.72832167E-02  0.00000000E+00
  1.56392296E+00 -4.50354008E-01 -9.90624204E-02  0.00000000E+00 -2.33692621E-01
 -4.33704051E-01  8.18662657E-02 -5.90899006E-01 -2.42925770E-02  7.66500126E-02
  0.00000000E+00  3.24565195E-01  4.43732614E-02 -2.86524327E-01  0.00000000E+00
 -5.65348183E-03  7.66466013E-01 -4.74245097E-02 -1.35638072E-01  0.00000000E+00
 -1.09375818E+00  1.82205488E-01  6.07968906E-01  0.00000000E+00  2.70834921E-01
 -1.46176544E-03  9.53834332E-02 -1.39412061E+00  1.46648129E-02 -2.26627814E-01
  0.00000000E+00  1.51835950E+00 -3.42246987E-02  6.28011239E-01  0.00000000E+00
Orthonormal basis                          R   N=         400
  6.72999699E-02  2.05475355E-01 -9.69827207E-02 -2.63541557E-02  0.00000000E+00
  2.78173168E-01 -1.83264541E-01 -5.55284289E-02  0.00000000E+00  2.46740450E-01
  2.98107433E-01  2.34989200E-02  7.00836539E-02 -2.01621520E-02  5.55755040E-02
  0.00000000E+00  1.07496592E-01 -4.94671717E-02  1.35351630E-01  0.00000000E+00
 -5.67987539E-03 -1.49750081E-02 -1.24855469E-01  1.98986148E-01  0.00000000E+00
 -3.34585257E-02 -1.90766537E-01  3.32411986E-01  0.00000000E+00  1.70217901E-01
  1.01918594E-01 -1.07724985E-01 -2.61874074E-01 -3.60383743E-02 -1.25836341E-01
  0.00000000E+00 -2.98371806E-01 -6.56970957E-02 -1.99536072E-01  0.00000000E+00
 -1.31543563E-01 -2.66641689E-01 -2.11781659E-01  1.54498709E-03  0.00000000E+00
 -2.40071014E-01 -2.69592714E-01 -3.66690115E-02  0.00000000E+00  1.02473357E-01
  2.54168533E-02  1.49820497E-01  2.98237235E-01 -1.11635850E-01 -1.52015534E-01
  0.00000000E+00  2.73048748E-01 -1.54332305E-01 -2.18623417E-01  0.00000000E+00
 -1.09767066E-01 -1.98632081E-01 -1.69179918E-01 -2.54069062E-01  0.00000000E+00
 -1.80473197E-01 -1.99826464E-01 -2.61011463E-01  0.00000000E+00  3.85986424E-02
 -2.65720106E-02 -1.32156917E-01 -2.39477488E-01 -1.35493036E-01  2.61741251E-01
  0.00000000E+00 -2.13107454E-01 -1.65991544E-01  2.94725537E-01  0.00000000E+00
 -8.40384811E-02 -1.22474146E-01 -1.84436149E-01 -5.58554759E-02  0.00000000E+00
 -8.86524790E-02 -1.43938902E-01 -5.15818928E-02  0.00000000E+00  1.36771737E-01
  2.77755762E-02 -9.06271444E-03 -1.31643095E-02  5.56384728E-01  2.77005438E-02
  0.00000000E+00 -1.19596550E-02  5.19742393E-01  1.96690390E-02  0.00000000E+00
 -2.11693642E-01 -1.60509267E-01  4.61963205E-02  5.30898136E-01  0.00000000E+00
 -4.23265388E-02  2.51439628E-02  2.62418571E-01  0.00000000E+00  7.76210401E-03
  3.21992351E-02  1.94149557E-01  1.48748248E-01 -5.38650212E-03  5.53607655E-01
  0.00000000E+00  3.57520700E-02 -2.22033795E-03  2.60973710E-01  0.00000000E+00
  7.28876291E-01  1.11102941E-01 -4.86384118E-01  1.19093974E-01  0.00000000E+00
 -6.90931110E-02 -1.34649055E-01  2.15006932E-02  0.00000000E+00 -2.43598124E-01
 -2.54401021E-01  2.05083465E-01  3.38708082E-02  9.46737707E-03  1.54701422E-01
  0.00000000E+00 -3.24809881E-02 -7.14260039E-04  2.67725041E-02  0.00000000E+00
 -9.45644050E-02  2.64374350E-02  1.17483692E-01 -2.26049307E-01  0.00000000E+00
  8.41382896E-03  1.36931880E-02  1.21004189E-02  0.00000000E+00  8.25198604E-02
  3.52929798E-02  9.50899370E-01 -2.29891027E-01  2.27394313E-04 -9.32967609E-02
  0.00000000E+00 -2.49083690E-01  3.38641230E-04  1.53362604E-02  0.00000000E+00
  6.37103012E-01 -4.41459311E-01  6.03976302E-01 -5.77415294E-02  0.00000000E+00
 -2.20408121E-01 -3.65975155E-02 -7.72226185E-03  0.00000000E+00  3.62547544E-01
  2.24895918E-01 -3.22914467E-02  2.23678557E-02  5.13054117E-02  1.10938343E-01
  0.00000000E+00  3.36009357E-03 -8.40421288E-03 -3.06884353E-02  0.00000000E+00
  5.40999719E-02 -1.73622757E-01  6.62452197E-02  7.36834095E-01  0.00000000E+00
 -9.01753212E-03 -7.40151694E-02 -5.23713583E-01  0.00000000E+00 -1.09207771E-01
  5.20628857E-02  6.27135887E-02 -2.08898948E-01  2.45375180E-01 -7.21344652E-01
  0.00000000E+00  1.82822448E-03 -2.27144213E-01  5.61032446E-01  0.00000000E+00
 -6.11984685E-02  2.13646029E-01  1.97903315E-01 -1.58886392E-01  0.00000000E+00
 -4.28296158E-02 -2.28952064E-01  1.11324505E-01  0.00000000E+00 -2.75033873E-01
  1.33370213E-02 -1.36296058E-02  4.72068548E-02  9.05297602E-01  2.13302527E-01
  0.00000000E+00 -1.22110858E-03 -8.67218026E-01 -1.78119470E-01  0.00000000E+00
 -1.00482414E-01  7.05331292E-01  4.68881430E-01  3.97006515E-01  0.00000000E+00
 -2.99023256E-01 -5.75155920E-01 -5.80426013E-01  0.00000000E+00  3.21801449E-01
 -5.49738941E-01  2.74649030E-02 -1.73154257E-01 -1.45890967E-01  2.82602081E-01
  0.00000000E+00  6.56805444E-02  1.90470690E-01 -4.21133084E-01  0.00000000E+00
 -2.17094481E-02  2.94848432E-01  2.91066431E-01 -2.41879961E-01  0.00000000E+00
 -1.90792168E-01 -4.40913004E-01  4.56822471E-01  0.00000000E+00  1.39362371E-01
 -4.57585915E-01 -9.38378250E-02  9.24050656E-01 -4.90790231E-02 -4.05123801E-01
  0.00000000E+00 -6.47033008E-01  7.62660722E-02  6.99560160E-01  0.00000000E+00
  1.39013763E-02 -3.43767146E-02 -4.32211969E-01  8.25921706E-02  0.00000000E+00
  1.05921963E-01  8.85950265E-01 -1.73675804E-01  0.00000000E+00  1.19523777E+00
 -7.18300182E-01 -9.96464155E-03  1.55425966E-01  2.71500401E-01  1.79169143E-02
  0.00000000E+00 -1.40760061E-01 -4.69860908E-01 -4.01360420E-02  0.00000000E+00
  4.56504843E-03 -4.42196118E-01  2.69390629E-01 -3.12605007E-01  0.00000000E+00
  7.28905899E-01 -6.41877662E-01  8.36450118E-01  0.00000000E+00  2.05285216E-01
 -1.15029226E+00 -4.37894839E-03 -8.51645203E-01  1.16235349E-02 -1.87388941E-01
  0.00000000E+00  1.16863380E+00 -2.13560985E-02  5.20925266E-01  0.00000000E+00
 -5.50375487E-02 -1.21887008E+00  2.01444785E-01  2.27331296E-01  0.00000000E+00
  2.00755515E+00 -6.28416480E-01 -7.67169422E-01  0.00000000E+00 -3.69609619E-01
 -5.73998005E-01  2.68871684E-02  6.58453337E-01 -1.61056435E-02  2.66508744E-01
  0.00000000E+00 -1.08564900E+00  4.79242547E-02 -8.64890416E-01  0.00000000E+00
  0.00000000E+00  0.00000000E+00  0.00000000E+00  0.00000000E+00  3.65522270E-01
  0.00000000E+00  0.00000000E+00  0.00000000E+00  4.32003456E-01  0.00000000E+00
  0.00000000E+00  0.00000000E+00  0.00000000E+00  0.00000000E+00  0.00000000E+00
  3.47619904E-01  0.00000000E+00  0.00000000E+00  0.00000000E+00  4.17156612E-01
  0.00000000E+00  0.00000000E+00  0.00000000E+00  0.00000000E+00 -4.57408606E-01
  0.00000000E+00  0.00000000E+00  0.00000000E+00 -3.72224942E-01  0.00000000E+00
  0.00000000E+00  0.00000000E+00  0.00000000E+00  0.00000000E+00  0.00000000E+00
  4.73637238E-01  0.00000000E+00  0.00000000E+00  0.00000000E+00  3.91578984E-01
  0.00000000E+00  0.00000000E+00  0.00000000E+00  0.00000000E+00  6.97785782E-01
  0.00000000E+00  0.00000000E+00  0.00000000E+00 -5.76488895E-01  0.00000000E+00
  0.00000000E+00  0.00000000E+00  0.00000000E+00  0.00000000E+00  0.00000000E+00
  7.48192043E-01  0.00000000E+00  0.00000000E+00  0.00000000E+00 -6.37883918E-01
  0.00000000E+00  0.00000000E+00  0.00000000E+00  0.00000000E+00 -7.13298514E-01
  0.00000000E+00  0.00000000E+00  0.00000000E+00  8.56223059E-01  0.00000000E+00
  0.00000000E+00  0.00000000E+00  0.00000000E+00  0.00000000E+00  0.00000000E+00
  6.44195265E-01  0.00000000E+00  0.00000000E+00  0.00000000E+00 -7.98500888E-01
Total SCF Density                          R   N=         210
  2.05896022E+00  7.33682565E-02  1.45249505E-01 -3.75472713E-02  2.45123738E-02
  4.11676899E-01 -2.83710237E-02  2.50665485E-02  2.56147938E-02  2.40256470E-01
  0.00000000E+00  0.00000000E+00  0.00000000E+00  0.00000000E+00  6.18823198E-01
 -5.00558885E-01  4.04964123E-01  1.99719447E-01  1.03372245E-01  0.00000000E+00
  1.41026616E+00 -1.66366233E-02  2.44903795E-02  3.82554801E-01  3.68786926E-02
  0.00000000E+00  1.85118768E-01  3.56891274E-01 -1.72362441E-02  2.78334397E-02
  4.96535321E-02  2.37280614E-01  0.00000000E+00  1.12480114E-01  5.92737929E-02
  2.37013096E-01  0.00000000E+00  0.00000000E+00  0.00000000E+00  0.00000000E+00
  6.70669774E-01  0.00000000E+00  0.00000000E+00  0.00000000E+00  7.27400080E-01
 -1.50163360E-02  2.52732385E-02 -2.56229029E-01  1.91326641E-02  0.00000000E+00
  8.76984050E-03 -2.35898583E-01  3.73006705E-03  0.00000000E+00  1.76907288E-01
  3.96129965E-02 -1.83145574E-02 -1.91061598E-01  1.89441514E-02  0.00000000E+00
 -1.19470274E-01 -1.75922772E-01  7.70374246E-03  0.00000000E+00  1.19374602E-01
  9.44348197E-02 -9.10346457E-03  1.22796374E-03 -1.76703734E-03  6.57833351E-03
  0.00000000E+00  5.18838201E-02 -2.91993353E-03 -2.03529616E-02  0.00000000E+00
  7.42335781E-04 -1.35468200E-03  2.05903589E+00  2.53679098E-03 -7.45239161E-03
 -2.03191634E-03 -4.38618694E-03  0.00000000E+00 -3.66722040E-02 -1.05350930E-03
  5.25163435E-03  0.00000000E+00 -2.33255370E-03  7.27152231E-03  6.49835653E-02
  1.47841117E-01  4.51175976E-03 -4.48090537E-03 -4.43676070E-02 -9.90207877E-03
  0.00000000E+00 -2.16018258E-02 -2.42199018E-02 -9.21864127E-03  0.00000000E+00
  5.18106776E-02  5.94152189E-03 -9.96167297E-04  2.59216874E-03  6.30236134E-01
 -1.11038708E-02  7.69215593E-03 -6.98564964E-03 -2.70976555E-01  0.00000000E+00
  1.19417166E-02 -2.22386622E-02 -2.68626996E-01  0.00000000E+00 -2.48227629E-02
 -3.61225767E-02  2.71672017E-02 -2.21711940E-02  1.69864585E-04  3.22588624E-01
  0.00000000E+00  0.00000000E+00  0.00000000E+00  0.00000000E+00 -6.45723747E-02
  0.00000000E+00  0.00000000E+00  0.00000000E+00 -5.15683384E-02  0.00000000E+00
  0.00000000E+00  0.00000000E+00  0.00000000E+00  0.00000000E+00  0.00000000E+00
  6.34784788E-01  5.34981626E-02 -3.57186122E-02  1.83728764E-02  1.81640928E-02
  0.00000000E+00 -1.70014008E-01  2.20467222E-02  5.62312492E-02  0.00000000E+00
 -2.37428445E-02  1.71404307E-02 -4.91554904E-01  4.12230368E-01 -7.73303081E-04
 -1.16492906E-01  0.00000000E+00  1.38197032E+00  3.13663099E-03 -3.33247045E-03
 -4.95089497E-02 -6.38876844E-03  0.00000000E+00 -1.84660085E-02 -2.76480019E-02
 -5.97821020E-03  0.00000000E+00  5.76300908E-02  7.73458559E-03  1.17510758E-03
  1.51263472E-03  6.72555235E-01 -4.07492099E-03  0.00000000E+00 -4.99915499E-03
  7.17828639E-01  1.29619841E-02 -2.66090278E-03  4.16517472E-03 -2.74021620E-01
  0.00000000E+00 -2.39405211E-02 -1.18511471E-02 -2.70589550E-01  0.00000000E+00
 -3.60157454E-02 -4.04321224E-02  8.76680649E-03 -2.08792752E-02 -2.83704183E-03
  3.22599402E-01  0.00000000E+00 -1.04196035E-01 -7.55599798E-03  3.24412729E-01
  0.00000000E+00  0.00000000E+00  0.00000000E+00  0.00000000E+00 -6.70547521E-02
  0.00000000E+00  0.00000000E+00  0.00000000E+00 -5.30867283E-02  0.00000000E+00
  0.00000000E+00  0.00000000E+00  0.00000000E+00  0.00000000E+00  0.00000000E+00
  6.75015984E-01  0.00000000E+00  0.00000000E+00  0.00000000E+00  7.17801175E-01
Total CI Rho(1) Density                    R   N=         210
  2.06273535E+00  6.93365147E-02  1.49564513E-01 -3.61793728E-02  2.30558540E-02
  4.12174407E-01  7.77446176E-04 -6.09465827E-03  3.61390813E-02  4.65416788E-01
  1.35341305E-16 -1.24353774E-16 -1.24613407E-15 -5.76015812E-16  3.96855573E-01
 -5.19588591E-01  4.25273101E-01  1.92819242E-01 -4.35032635E-02 -6.49560335E-16
  1.50621157E+00 -1.37447097E-02  2.14171346E-02  3.83613299E-01  5.90965467E-02
 -1.08466324E-15  1.70521277E-01  3.59151445E-01  1.64514132E-02 -8.12566030E-03
  6.18523803E-02  4.97241761E-01 -6.58855899E-16 -5.73481730E-02  8.50827403E-02
  5.37555404E-01  2.09983622E-16 -1.88687056E-16 -1.32382321E-15 -1.48471827E-16
  4.34143091E-01 -1.10327640E-15 -1.07390707E-15 -1.16167742E-16  4.75723719E-01
 -1.46470137E-02  2.48951917E-02 -2.56077207E-01  2.18454947E-02  9.95841151E-16
  6.88670317E-03 -2.35545779E-01  7.04338190E-03  8.77761772E-16  1.77057058E-01
  4.91185762E-02 -2.84546717E-02 -1.87616558E-01  9.23017443E-02  2.41735204E-16
 -1.67403383E-01 -1.68636345E-01  9.25283250E-02  6.89963388E-16  1.20299380E-01
  1.18392529E-01 -1.20069361E-02  4.32791437E-03 -2.81839802E-03 -1.58356551E-02
 -2.33982469E-16  6.65204846E-02 -5.14292936E-03 -4.62597782E-02 -2.95032221E-16
  4.59909717E-04 -8.66608211E-03  2.06126896E+00  5.76375270E-03 -1.08924698E-02
 -8.61840242E-04  2.05121605E-02  2.48538367E-16 -5.29477164E-02  1.42265820E-03
  3.40561023E-02  3.12994359E-16 -2.01477167E-03  1.54048898E-02  6.25009666E-02
  1.50604566E-01  4.81336116E-03 -4.80345871E-03 -4.42587653E-02 -7.56791316E-03
  4.63280534E-15 -2.31216366E-02 -2.39909452E-02 -6.52665973E-03  4.95037131E-15
  5.18363607E-02  6.70153531E-03 -1.22823958E-03  2.85002763E-03  6.30260341E-01
  1.53797077E-02 -2.05685360E-02  2.61262079E-03 -6.65626977E-02 -9.81835420E-18
 -1.21585503E-01 -1.93712217E-03 -3.22808600E-02  4.38744289E-16 -2.22262259E-02
  3.05918616E-02  6.79662254E-03  4.83953901E-04  2.28558856E-03  5.08408635E-01
 -1.30862660E-16  1.14658104E-16  9.56537470E-16  2.91405866E-16  1.02742637E-01
  6.91456014E-16  7.85185777E-16  3.03271885E-16  1.26454959E-01 -6.08065618E-16
 -4.63103339E-16  1.91124886E-16 -2.00747856E-16 -3.50784025E-15 -1.51290004E-16
  5.08771759E-01  6.80588625E-02 -5.12701093E-02  2.36436934E-02  1.30569018E-01
  6.30223099E-16 -2.43406296E-01  3.31913630E-02  1.86131645E-01  9.04144154E-16
 -2.23240644E-02  5.37956148E-02 -5.02752244E-01  4.24674861E-01  3.90439511E-04
 -1.43562832E-02 -5.49696511E-16  1.43812221E+00  3.72706182E-03 -3.96392838E-03
 -4.92961852E-02 -1.82100359E-03  4.94359768E-15 -2.14410763E-02 -2.72002841E-02
 -7.10291846E-04  5.27954274E-15  5.76801850E-02  9.22193385E-03  7.20868660E-04
  2.01736032E-03  6.72602659E-01  6.69493637E-05 -3.73966073E-15 -2.72152215E-03
  7.17921499E-01  4.45341361E-02 -3.64016826E-02  1.55835526E-02 -3.01660899E-02
 -8.14209306E-17 -1.83045676E-01  1.22689165E-02  1.10686509E-02  4.37764985E-16